LAMMPS data file. CGCMM style. atom_style full generated by VMD/TopoTools v1.5 on Sun Jun 11 11:09:08 PDT 2017
 1506 atoms
 108 bonds
 0 angles
 0 dihedrals
 0 impropers
 11 atom types
 1 bond types
 0 angle types
 0 dihedral types
 0 improper types
 1.889931 45.665932  xlo xhi
 -2.142577 41.617421  ylo yhi
 -0.001005 27.678995  zlo zhi

# Pair Coeffs
#
# 1  Ca
# 2  Cb
# 3  Cc
# 4  Cd
# 5  Cg
# 6  H
# 7  Mg
# 8  Oa
# 9  Ob
# 10  Oc
# 11  Og

 Masses

 1 12.011000 # Ca
 2 12.011000 # Cb
 3 12.011000 # Cc
 4 12.011000 # Cd
 5 12.011000 # Cg
 6 1.008000 # H
 7 24.305000 # Mg
 8 15.999000 # Oa
 9 15.999000 # Ob
 10 15.999000 # Oc
 11 15.999000 # Og

 Atoms

1 1 11 -0.325600 19.156219 29.125345 19.619987 # Og 
2 1 5 0.651200 19.156219 29.125345 18.459988 # Cg 
3 1 11 -0.325600 19.156219 29.125345 17.299988 # Og 
4 2 11 -0.325600 19.157219 29.127344 26.539989 # Og 
5 2 5 0.651200 19.157219 29.127344 25.379990 # Cg 
6 2 11 -0.325600 19.157219 29.127344 24.219990 # Og 
7 3 11 -0.325600 19.153387 29.154451 5.780000 # Og 
8 3 5 0.651200 19.153387 29.154451 4.620000 # Cg 
9 3 11 -0.325600 19.153387 29.154451 3.460000 # Og 
10 4 11 -0.325600 19.154388 29.156450 12.700000 # Og 
11 4 5 0.651200 19.154388 29.156450 11.540000 # Cg 
12 4 11 -0.325600 19.154388 29.156450 10.380000 # Og 
13 5 11 -0.325600 13.684219 38.598347 19.619987 # Og 
14 5 5 0.651200 13.684219 38.598347 18.459988 # Cg 
15 5 11 -0.325600 13.684219 38.598347 17.299988 # Og 
16 6 11 -0.325600 13.685219 38.600349 26.539989 # Og 
17 6 5 0.651200 13.685219 38.600349 25.379990 # Cg 
18 6 11 -0.325600 13.685219 38.600349 24.219990 # Og 
19 7 11 -0.325600 13.681389 38.627453 5.780000 # Og 
20 7 5 0.651200 13.681389 38.627453 4.620000 # Cg 
21 7 11 -0.325600 13.681389 38.627453 3.460000 # Og 
22 8 11 -0.325600 13.683388 38.629452 12.700000 # Og 
23 8 5 0.651200 13.683388 38.629452 11.540000 # Cg 
24 8 11 -0.325600 13.683388 38.629452 10.380000 # Og 
25 9 11 -0.325600 30.098833 10.178894 19.619987 # Og 
26 9 5 0.651200 30.098833 10.178894 18.459988 # Cg 
27 9 11 -0.325600 30.098833 10.178894 17.299988 # Og 
28 10 11 -0.325600 30.100832 10.180895 26.539989 # Og 
29 10 5 0.651200 30.100832 10.180895 25.379990 # Cg 
30 10 11 -0.325600 30.100832 10.180895 24.219990 # Og 
31 11 11 -0.325600 30.097002 10.208000 5.780000 # Og 
32 11 5 0.651200 30.097002 10.208000 4.620000 # Cg 
33 11 11 -0.325600 30.097002 10.208000 3.460000 # Og 
34 12 11 -0.325600 30.098001 10.209999 12.700000 # Og 
35 12 5 0.651200 30.098001 10.209999 11.540000 # Cg 
36 12 11 -0.325600 30.098001 10.209999 10.380000 # Og 
37 13 11 -0.325600 24.627832 19.651894 19.619987 # Og 
38 13 5 0.651200 24.627832 19.651894 18.459988 # Cg 
39 13 11 -0.325600 24.627832 19.651894 17.299988 # Og 
40 14 11 -0.325600 24.628832 19.653894 26.539989 # Og 
41 14 5 0.651200 24.628832 19.653894 25.379990 # Cg 
42 14 11 -0.325600 24.628832 19.653894 24.219990 # Og 
43 15 11 -0.325600 24.625002 19.681000 5.780000 # Og 
44 15 5 0.651200 24.625002 19.681000 4.620000 # Cg 
45 15 11 -0.325600 24.625002 19.681000 3.460000 # Og 
46 16 11 -0.325600 24.626001 19.683001 12.700000 # Og 
47 16 5 0.651200 24.626001 19.683001 11.540000 # Cg 
48 16 11 -0.325600 24.626001 19.683001 10.380000 # Og 
49 17 11 -0.325600 30.100220 29.125345 19.619987 # Og 
50 17 5 0.651200 30.100220 29.125345 18.459988 # Cg 
51 17 11 -0.325600 30.100220 29.125345 17.299988 # Og 
52 18 11 -0.325600 30.101219 29.127344 26.539989 # Og 
53 18 5 0.651200 30.101219 29.127344 25.379990 # Cg 
54 18 11 -0.325600 30.101219 29.127344 24.219990 # Og 
55 19 11 -0.325600 30.097387 29.154451 5.780000 # Og 
56 19 5 0.651200 30.097387 29.154451 4.620000 # Cg 
57 19 11 -0.325600 30.097387 29.154451 3.460000 # Og 
58 20 11 -0.325600 30.098387 29.156450 12.700000 # Og 
59 20 5 0.651200 30.098387 29.156450 11.540000 # Cg 
60 20 11 -0.325600 30.098387 29.156450 10.380000 # Og 
61 21 11 -0.325600 24.628220 38.598347 19.619987 # Og 
62 21 5 0.651200 24.628220 38.598347 18.459988 # Cg 
63 21 11 -0.325600 24.628220 38.598347 17.299988 # Og 
64 22 11 -0.325600 24.629219 38.600349 26.539989 # Og 
65 22 5 0.651200 24.629219 38.600349 25.379990 # Cg 
66 22 11 -0.325600 24.629219 38.600349 24.219990 # Og 
67 23 11 -0.325600 24.625387 38.627453 5.780000 # Og 
68 23 5 0.651200 24.625387 38.627453 4.620000 # Cg 
69 23 11 -0.325600 24.625387 38.627453 3.460000 # Og 
70 24 11 -0.325600 24.627388 38.629452 12.700000 # Og 
71 24 5 0.651200 24.627388 38.629452 11.540000 # Cg 
72 24 11 -0.325600 24.627388 38.629452 10.380000 # Og 
73 25 11 -0.325600 41.042831 10.178894 19.619987 # Og 
74 25 5 0.651200 41.042831 10.178894 18.459988 # Cg 
75 25 11 -0.325600 41.042831 10.178894 17.299988 # Og 
76 26 11 -0.325600 41.044834 10.180895 26.539989 # Og 
77 26 5 0.651200 41.044834 10.180895 25.379990 # Cg 
78 26 11 -0.325600 41.044834 10.180895 24.219990 # Og 
79 27 11 -0.325600 41.041000 10.208000 5.780000 # Og 
80 27 5 0.651200 41.041000 10.208000 4.620000 # Cg 
81 27 11 -0.325600 41.041000 10.208000 3.460000 # Og 
82 28 11 -0.325600 41.042000 10.209999 12.700000 # Og 
83 28 5 0.651200 41.042000 10.209999 11.540000 # Cg 
84 28 11 -0.325600 41.042000 10.209999 10.380000 # Og 
85 29 11 -0.325600 35.571835 19.651894 19.619987 # Og 
86 29 5 0.651200 35.571835 19.651894 18.459988 # Cg 
87 29 11 -0.325600 35.571835 19.651894 17.299988 # Og 
88 30 11 -0.325600 35.572834 19.653894 26.539989 # Og 
89 30 5 0.651200 35.572834 19.653894 25.379990 # Cg 
90 30 11 -0.325600 35.572834 19.653894 24.219990 # Og 
91 31 11 -0.325600 35.569000 19.681000 5.780000 # Og 
92 31 5 0.651200 35.569000 19.681000 4.620000 # Cg 
93 31 11 -0.325600 35.569000 19.681000 3.460000 # Og 
94 32 11 -0.325600 35.570000 19.683001 12.700000 # Og 
95 32 5 0.651200 35.570000 19.683001 11.540000 # Cg 
96 32 11 -0.325600 35.570000 19.683001 10.380000 # Og 
97 33 11 -0.325600 41.044220 29.125345 19.619987 # Og 
98 33 5 0.651200 41.044220 29.125345 18.459988 # Cg 
99 33 11 -0.325600 41.044220 29.125345 17.299988 # Og 
100 34 11 -0.325600 41.045219 29.127344 26.539989 # Og 
101 34 5 0.651200 41.045219 29.127344 25.379990 # Cg 
102 34 11 -0.325600 41.045219 29.127344 24.219990 # Og 
103 35 11 -0.325600 41.041389 29.154451 5.780000 # Og 
104 35 5 0.651200 41.041389 29.154451 4.620000 # Cg 
105 35 11 -0.325600 41.041389 29.154451 3.460000 # Og 
106 36 11 -0.325600 41.042389 29.156450 12.700000 # Og 
107 36 5 0.651200 41.042389 29.156450 11.540000 # Cg 
108 36 11 -0.325600 41.042389 29.156450 10.380000 # Og 
109 37 11 -0.325600 35.572220 38.598347 19.619987 # Og 
110 37 5 0.651200 35.572220 38.598347 18.459988 # Cg 
111 37 11 -0.325600 35.572220 38.598347 17.299988 # Og 
112 38 11 -0.325600 35.573219 38.600349 26.539989 # Og 
113 38 5 0.651200 35.573219 38.600349 25.379990 # Cg 
114 38 11 -0.325600 35.573219 38.600349 24.219990 # Og 
115 39 11 -0.325600 35.569389 38.627453 5.780000 # Og 
116 39 5 0.651200 35.569389 38.627453 4.620000 # Cg 
117 39 11 -0.325600 35.569389 38.627453 3.460000 # Og 
118 40 11 -0.325600 35.571388 38.629452 12.700000 # Og 
119 40 5 0.651200 35.571388 38.629452 11.540000 # Cg 
120 40 11 -0.325600 35.571388 38.629452 10.380000 # Og 
121 41 11 -0.325600 8.210833 10.178894 19.619987 # Og 
122 41 5 0.651200 8.210833 10.178894 18.459988 # Cg 
123 41 11 -0.325600 8.210833 10.178894 17.299988 # Og 
124 42 11 -0.325600 8.212832 10.180895 26.539989 # Og 
125 42 5 0.651200 8.212832 10.180895 25.379990 # Cg 
126 42 11 -0.325600 8.212832 10.180895 24.219990 # Og 
127 43 11 -0.325600 8.209000 10.208000 5.780000 # Og 
128 43 5 0.651200 8.209000 10.208000 4.620000 # Cg 
129 43 11 -0.325600 8.209000 10.208000 3.460000 # Og 
130 44 11 -0.325600 8.210000 10.209999 12.700000 # Og 
131 44 5 0.651200 8.210000 10.209999 11.540000 # Cg 
132 44 11 -0.325600 8.210000 10.209999 10.380000 # Og 
133 45 11 -0.325600 46.515835 19.651894 19.619987 # Og 
134 45 5 0.651200 46.515835 19.651894 18.459988 # Cg 
135 45 11 -0.325600 46.515835 19.651894 17.299988 # Og 
136 46 11 -0.325600 46.516834 19.653894 26.539989 # Og 
137 46 5 0.651200 46.516834 19.653894 25.379990 # Cg 
138 46 11 -0.325600 46.516834 19.653894 24.219990 # Og 
139 47 11 -0.325600 46.513000 19.681000 5.780000 # Og 
140 47 5 0.651200 46.513000 19.681000 4.620000 # Cg 
141 47 11 -0.325600 46.513000 19.681000 3.460000 # Og 
142 48 11 -0.325600 46.514000 19.683001 12.700000 # Og 
143 48 5 0.651200 46.514000 19.683001 11.540000 # Cg 
144 48 11 -0.325600 46.514000 19.683001 10.380000 # Og 
145 49 11 -0.325600 8.212217 29.125345 19.619987 # Og 
146 49 5 0.651200 8.212217 29.125345 18.459988 # Cg 
147 49 11 -0.325600 8.212217 29.125345 17.299988 # Og 
148 50 11 -0.325600 8.213217 29.127344 26.539989 # Og 
149 50 5 0.651200 8.213217 29.127344 25.379990 # Cg 
150 50 11 -0.325600 8.213217 29.127344 24.219990 # Og 
151 51 11 -0.325600 8.209387 29.154451 5.780000 # Og 
152 51 5 0.651200 8.209387 29.154451 4.620000 # Cg 
153 51 11 -0.325600 8.209387 29.154451 3.460000 # Og 
154 52 11 -0.325600 8.210386 29.156450 12.700000 # Og 
155 52 5 0.651200 8.210386 29.156450 11.540000 # Cg 
156 52 11 -0.325600 8.210386 29.156450 10.380000 # Og 
157 53 11 -0.325600 46.516220 38.598347 19.619987 # Og 
158 53 5 0.651200 46.516220 38.598347 18.459988 # Cg 
159 53 11 -0.325600 46.516220 38.598347 17.299988 # Og 
160 54 11 -0.325600 46.517220 38.600349 26.539989 # Og 
161 54 5 0.651200 46.517220 38.600349 25.379990 # Cg 
162 54 11 -0.325600 46.517220 38.600349 24.219990 # Og 
163 55 6 0.186000 23.398062 37.097843 22.712994 # H LIG
164 55 6 0.186000 28.529060 30.732845 18.235992 # H LIG
165 55 6 0.186000 28.505062 28.451845 24.192993 # H LIG
166 55 6 0.186000 27.286060 30.087845 20.400993 # H LIG
167 55 6 0.186000 10.296674 0.991393 21.867992 # H LIG
168 55 6 0.186000 30.210060 37.762844 22.837994 # H LIG
169 55 6 0.186000 31.421062 36.944843 18.100994 # H LIG
170 55 6 0.186000 21.333061 36.784843 19.557993 # H LIG
171 55 6 0.186000 23.297060 35.640846 20.527992 # H LIG
172 55 6 0.186000 42.357674 0.895393 18.805994 # H LIG
173 55 6 0.186000 32.281673 1.050393 17.348993 # H LIG
174 55 6 0.186000 34.243675 2.191393 23.295994 # H LIG
175 55 6 0.186000 39.514675 9.393394 19.663994 # H LIG
176 55 6 0.186000 34.349674 0.736393 21.112993 # H LIG
177 55 6 0.186000 39.535675 7.122394 18.690994 # H LIG
178 55 6 0.186000 41.148674 0.075392 20.986994 # H LIG
179 55 6 0.186000 21.234060 36.839844 21.959993 # H LIG
180 55 6 0.186000 38.199677 7.754394 23.422993 # H LIG
181 55 7 1.560000 26.851061 33.809845 18.408993 # Mg LIG
182 55 7 1.560000 28.410061 34.723843 23.022993 # Mg LIG
183 55 7 1.560000 26.833061 35.615845 20.716993 # Mg LIG
184 55 7 1.560000 37.779675 2.228392 23.105993 # Mg LIG
185 55 7 1.560000 37.793674 4.042393 18.494993 # Mg LIG
186 55 7 1.560000 39.353676 3.123393 20.800993 # Mg LIG
187 55 3 0.456000 27.957062 31.715845 23.336994 # Cc LIG
188 55 2 -0.314000 24.453060 36.095844 17.347994 # Cb LIG
189 55 4 -0.234000 23.337061 36.768845 23.750994 # Cd LIG
190 55 2 -0.314000 22.199060 37.042843 17.589993 # Cb LIG
191 55 4 -0.234000 28.233061 29.301846 23.563993 # Cd LIG
192 55 4 -0.234000 28.256062 30.573845 24.110992 # Cd LIG
193 55 1 0.900000 25.584061 35.841843 23.344994 # Ca LIG
194 55 3 0.456000 29.661060 36.736843 21.030994 # Cc LIG
195 55 2 -0.314000 27.621061 31.504845 21.958994 # Cb LIG
196 55 4 -0.234000 27.587061 30.197845 21.442993 # Cd LIG
197 55 2 -0.314000 27.901062 29.076845 22.209993 # Cb LIG
198 55 4 -0.234000 9.709674 0.311393 21.246994 # Cd LIG
199 55 4 -0.234000 30.488060 37.586845 21.796993 # Cd LIG
200 55 1 0.900000 27.282063 32.608845 21.033993 # Ca LIG
201 55 3 0.456000 24.463060 35.687843 18.721992 # Cc LIG
202 55 2 -0.314000 30.018061 36.539845 19.655994 # Cb LIG
203 55 4 -0.234000 31.168060 37.162846 19.138992 # Cd LIG
204 55 2 -0.314000 10.082674 0.115392 19.898994 # Cb LIG
205 55 4 -0.234000 22.216061 36.620846 18.936993 # Cd LIG
206 55 4 -0.234000 23.310061 35.971844 19.487993 # Cd LIG
207 55 1 0.900000 29.233061 35.692844 18.731995 # Ca LIG
208 55 3 0.456000 35.409676 2.154393 18.180992 # Cc LIG
209 55 2 -0.314000 40.959675 1.300393 24.167994 # Cb LIG
210 55 4 -0.234000 42.104675 0.678393 17.766994 # Cd LIG
211 55 2 -0.314000 21.022060 37.716843 23.926994 # Cb LIG
212 55 4 -0.234000 33.165676 1.216393 17.967995 # Cd LIG
213 55 4 -0.234000 34.256676 1.867393 17.416992 # Cd LIG
214 55 1 0.900000 40.176674 2.158393 18.171993 # Ca LIG
215 55 3 0.456000 38.909676 6.131393 20.491993 # Cc LIG
216 55 2 -0.314000 35.401676 1.746393 19.554993 # Cb LIG
217 55 4 -0.234000 34.286674 1.065393 20.074993 # Cd LIG
218 55 2 -0.314000 33.149673 0.795393 19.314995 # Cb LIG
219 55 4 -0.234000 39.214676 8.544393 20.281994 # Cd LIG
220 55 4 -0.234000 39.237675 7.274392 19.729994 # Cd LIG
221 55 1 0.900000 36.530674 1.999393 20.477993 # Ca LIG
222 55 3 0.456000 40.603676 1.105393 22.793993 # Cc LIG
223 55 2 -0.314000 38.556675 6.340393 21.865993 # Cb LIG
224 55 4 -0.234000 38.517673 7.647393 22.384995 # Cd LIG
225 55 2 -0.314000 38.849674 8.768394 21.626993 # Cb LIG
226 55 4 -0.234000 20.649061 37.521843 22.579994 # Cd LIG
227 55 4 -0.234000 41.427673 0.250393 22.027994 # Cd LIG
228 55 1 0.900000 38.215675 5.235394 22.788994 # Ca LIG
229 55 10 -0.903000 39.534676 1.678393 22.210993 # Oc LIG
230 55 8 -0.899000 38.339676 4.019393 22.360992 # Oa LIG
231 55 9 -0.752000 40.569675 2.373393 19.362993 # Ob LIG
232 55 10 -0.903000 38.953674 4.920393 19.907993 # Oc LIG
233 55 8 -0.899000 37.522675 2.714392 20.051994 # Oa LIG
234 55 9 -0.752000 37.831676 5.466393 23.979994 # Ob LIG
235 55 10 -0.903000 36.437675 2.796393 17.598993 # Oc LIG
236 55 8 -0.899000 39.062675 2.662392 17.744993 # Oa LIG
237 55 9 -0.752000 36.521675 1.549392 21.668993 # Ob LIG
238 55 10 -0.903000 25.493061 35.048843 19.304993 # Oc LIG
239 55 8 -0.899000 28.117062 35.192844 19.156994 # Oa LIG
240 55 9 -0.752000 25.573061 36.290844 22.153994 # Ob LIG
241 55 10 -0.903000 28.008060 32.928844 23.914993 # Oc LIG
242 55 8 -0.899000 26.579062 35.131844 23.770994 # Oa LIG
243 55 9 -0.752000 26.903061 32.376846 19.841993 # Ob LIG
244 55 10 -0.903000 28.589062 36.169846 21.611994 # Oc LIG
245 55 8 -0.899000 27.400061 33.824844 21.461994 # Oa LIG
246 55 9 -0.752000 29.626060 35.476845 17.539993 # Ob LIG
247 55 6 0.186000 23.394436 37.125042 1.953001 # H LIG
248 55 6 0.186000 28.530270 30.734938 25.155991 # H LIG
249 55 6 0.186000 28.501436 28.479042 3.433002 # H LIG
250 55 6 0.186000 27.287270 30.089937 27.320990 # H LIG
251 55 6 0.186000 10.293049 1.018591 1.108001 # H LIG
252 55 6 0.186000 30.206436 37.790043 2.078001 # H LIG
253 55 6 0.186000 31.422268 36.946938 25.020990 # H LIG
254 55 6 0.186000 21.334269 36.786938 26.477989 # H LIG
255 55 6 0.186000 23.298269 35.642937 27.447990 # H LIG
256 55 6 0.186000 42.358883 0.897485 25.725990 # H LIG
257 55 6 0.186000 32.282883 1.052485 24.268990 # H LIG
258 55 6 0.186000 34.240051 2.218591 2.536001 # H LIG
259 55 6 0.186000 39.515884 9.395486 26.583990 # H LIG
260 55 6 0.186000 34.346050 0.763591 0.353001 # H LIG
261 55 6 0.186000 39.536884 7.124486 25.610991 # H LIG
262 55 6 0.186000 41.145050 0.102591 0.227001 # H LIG
263 55 6 0.186000 21.230436 36.867043 1.200001 # H LIG
264 55 6 0.186000 38.196053 7.781591 2.663002 # H LIG
265 55 7 1.560000 26.852268 33.811935 25.328991 # Mg LIG
266 55 7 1.560000 28.406437 34.751041 2.263001 # Mg LIG
267 55 7 1.560000 26.834269 35.617935 27.636990 # Mg LIG
268 55 7 1.560000 37.776051 2.255590 2.346002 # Mg LIG
269 55 7 1.560000 37.794884 4.044485 25.414989 # Mg LIG
270 55 7 1.560000 39.350052 3.150591 0.041001 # Mg LIG
271 55 3 0.456000 27.953436 31.743042 2.577002 # Cc LIG
272 55 2 -0.314000 24.454269 36.097939 24.267990 # Cb LIG
273 55 4 -0.234000 23.333437 36.796043 2.991002 # Cd LIG
274 55 2 -0.314000 22.200268 37.044937 24.509991 # Cb LIG
275 55 4 -0.234000 28.229437 29.329042 2.804001 # Cd LIG
276 55 4 -0.234000 28.252438 30.601044 3.351001 # Cd LIG
277 55 1 0.900000 25.580437 35.869041 2.585001 # Ca LIG
278 55 3 0.456000 29.657436 36.764042 0.271001 # Cc LIG
279 55 2 -0.314000 27.617437 31.532043 1.199001 # Cb LIG
280 55 4 -0.234000 27.583437 30.225042 0.683002 # Cd LIG
281 55 2 -0.314000 27.897436 29.104042 1.450001 # Cb LIG
282 55 4 -0.234000 9.706049 0.338591 0.487001 # Cd LIG
283 55 4 -0.234000 30.484436 37.614044 1.037002 # Cd LIG
284 55 1 0.900000 27.278437 32.636044 0.274001 # Ca LIG
285 55 3 0.456000 24.464270 35.689938 25.641991 # Cc LIG
286 55 2 -0.314000 30.019268 36.541935 26.575991 # Cb LIG
287 55 4 -0.234000 31.169270 37.164936 26.058990 # Cd LIG
288 55 2 -0.314000 10.083882 0.117485 26.818991 # Cb LIG
289 55 4 -0.234000 22.217268 36.622936 25.856991 # Cd LIG
290 55 4 -0.234000 23.311268 35.973938 26.407990 # Cd LIG
291 55 1 0.900000 29.234268 35.694939 25.651991 # Ca LIG
292 55 3 0.456000 35.410881 2.156485 25.100990 # Cc LIG
293 55 2 -0.314000 40.956051 1.327591 3.408001 # Cb LIG
294 55 4 -0.234000 42.105881 0.680485 24.686991 # Cd LIG
295 55 2 -0.314000 21.018436 37.744041 3.167001 # Cb LIG
296 55 4 -0.234000 33.166882 1.218486 24.887991 # Cd LIG
297 55 4 -0.234000 34.257881 1.869486 24.336990 # Cd LIG
298 55 1 0.900000 40.177883 2.160485 25.091990 # Ca LIG
299 55 3 0.456000 38.910881 6.133486 27.411991 # Cc LIG
300 55 2 -0.314000 35.402882 1.748485 26.474991 # Cb LIG
301 55 4 -0.234000 34.287884 1.067486 26.994991 # Cd LIG
302 55 2 -0.314000 33.150883 0.797485 26.234991 # Cb LIG
303 55 4 -0.234000 39.215881 8.546485 27.201990 # Cd LIG
304 55 4 -0.234000 39.238884 7.276484 26.649990 # Cd LIG
305 55 1 0.900000 36.531883 2.001486 27.397991 # Ca LIG
306 55 3 0.456000 40.600052 1.132591 2.034001 # Cc LIG
307 55 2 -0.314000 38.553051 6.367591 1.106001 # Cb LIG
308 55 4 -0.234000 38.514050 7.674591 1.625001 # Cd LIG
309 55 2 -0.314000 38.846050 8.795591 0.867002 # Cb LIG
310 55 4 -0.234000 20.645437 37.549042 1.820002 # Cd LIG
311 55 4 -0.234000 41.424049 0.277591 1.268002 # Cd LIG
312 55 1 0.900000 38.212051 5.262591 2.029001 # Ca LIG
313 55 10 -0.903000 39.531052 1.705591 1.451001 # Oc LIG
314 55 8 -0.899000 38.336052 4.046591 1.601001 # Oa LIG
315 55 9 -0.752000 40.570881 2.375485 26.282990 # Ob LIG
316 55 10 -0.903000 38.954884 4.922485 26.827990 # Oc LIG
317 55 8 -0.899000 37.523884 2.716485 26.971991 # Oa LIG
318 55 9 -0.752000 37.828049 5.493591 3.220001 # Ob LIG
319 55 10 -0.903000 36.438881 2.798486 24.518990 # Oc LIG
320 55 8 -0.899000 39.063881 2.664485 24.664989 # Oa LIG
321 55 9 -0.752000 36.518051 1.576591 0.909001 # Ob LIG
322 55 10 -0.903000 25.494268 35.050938 26.224991 # Oc LIG
323 55 8 -0.899000 28.118269 35.194939 26.076990 # Oa LIG
324 55 9 -0.752000 25.569437 36.318043 1.394001 # Ob LIG
325 55 10 -0.903000 28.004436 32.956043 3.155001 # Oc LIG
326 55 8 -0.899000 26.575438 35.159042 3.011002 # Oa LIG
327 55 9 -0.752000 26.904268 32.378937 26.761990 # Ob LIG
328 55 10 -0.903000 28.585436 36.197044 0.852001 # Oc LIG
329 55 8 -0.899000 27.396437 33.852043 0.702002 # Oa LIG
330 55 9 -0.752000 29.627270 35.478935 24.459990 # Ob LIG
331 55 6 0.186000 23.395645 37.127136 8.872999 # H LIG
332 55 6 0.186000 28.526646 30.762136 4.395998 # H LIG
333 55 6 0.186000 28.502644 28.481136 10.352999 # H LIG
334 55 6 0.186000 27.283646 30.117136 6.560999 # H LIG
335 55 6 0.186000 10.294257 1.020684 8.027998 # H LIG
336 55 6 0.186000 30.207645 37.792137 8.997999 # H LIG
337 55 6 0.186000 31.418644 36.974136 4.260999 # H LIG
338 55 6 0.186000 21.330645 36.814137 5.717999 # H LIG
339 55 6 0.186000 23.294643 35.670135 6.687999 # H LIG
340 55 6 0.186000 42.355259 0.924685 4.965999 # H LIG
341 55 6 0.186000 32.279259 1.079684 3.508999 # H LIG
342 55 6 0.186000 34.241257 2.220684 9.455998 # H LIG
343 55 6 0.186000 39.512260 9.422685 5.823998 # H LIG
344 55 6 0.186000 34.347260 0.765684 7.272999 # H LIG
345 55 6 0.186000 39.533257 7.151685 4.850999 # H LIG
346 55 6 0.186000 41.146259 0.104684 7.146998 # H LIG
347 55 6 0.186000 21.231644 36.869137 8.119999 # H LIG
348 55 6 0.186000 38.197258 7.783685 9.582998 # H LIG
349 55 7 1.560000 26.848644 33.839134 4.568998 # Mg LIG
350 55 7 1.560000 28.407644 34.753136 9.182999 # Mg LIG
351 55 7 1.560000 26.830645 35.645134 6.876999 # Mg LIG
352 55 7 1.560000 37.777260 2.257684 9.265999 # Mg LIG
353 55 7 1.560000 37.791260 4.071684 4.654999 # Mg LIG
354 55 7 1.560000 39.351257 3.152684 6.960999 # Mg LIG
355 55 3 0.456000 27.954643 31.745136 9.496999 # Cc LIG
356 55 2 -0.314000 24.450645 36.125137 3.507999 # Cb LIG
357 55 4 -0.234000 23.334644 36.798134 9.910999 # Cd LIG
358 55 2 -0.314000 22.196644 37.072136 3.749999 # Cb LIG
359 55 4 -0.234000 28.230644 29.331135 9.723999 # Cd LIG
360 55 4 -0.234000 28.253645 30.603136 10.270998 # Cd LIG
361 55 1 0.900000 25.581644 35.871136 9.504999 # Ca LIG
362 55 3 0.456000 29.658646 36.766136 7.190999 # Cc LIG
363 55 2 -0.314000 27.618645 31.534136 8.118999 # Cb LIG
364 55 4 -0.234000 27.584644 30.227135 7.602999 # Cd LIG
365 55 2 -0.314000 27.898643 29.106136 8.369999 # Cb LIG
366 55 4 -0.234000 9.707257 0.340684 7.406999 # Cd LIG
367 55 4 -0.234000 30.485645 37.616135 7.956999 # Cd LIG
368 55 1 0.900000 27.279644 32.638138 7.193998 # Ca LIG
369 55 3 0.456000 24.460644 35.717136 4.881999 # Cc LIG
370 55 2 -0.314000 30.015644 36.569138 5.815999 # Cb LIG
371 55 4 -0.234000 31.165646 37.192135 5.298999 # Cd LIG
372 55 2 -0.314000 10.080257 0.144684 6.058999 # Cb LIG
373 55 4 -0.234000 22.213644 36.650135 5.096999 # Cd LIG
374 55 4 -0.234000 23.307644 36.001137 5.647999 # Cd LIG
375 55 1 0.900000 29.230644 35.722137 4.891999 # Ca LIG
376 55 3 0.456000 35.407257 2.183684 4.340999 # Cc LIG
377 55 2 -0.314000 40.957260 1.329684 10.327999 # Cb LIG
378 55 4 -0.234000 42.102257 0.707685 3.926999 # Cd LIG
379 55 2 -0.314000 21.019646 37.746136 10.086998 # Cb LIG
380 55 4 -0.234000 33.163258 1.245685 4.127998 # Cd LIG
381 55 4 -0.234000 34.254257 1.896685 3.576999 # Cd LIG
382 55 1 0.900000 40.174259 2.187684 4.331999 # Ca LIG
383 55 3 0.456000 38.907257 6.160685 6.651999 # Cc LIG
384 55 2 -0.314000 35.399258 1.775684 5.714999 # Cb LIG
385 55 4 -0.234000 34.284256 1.094685 6.234999 # Cd LIG
386 55 2 -0.314000 33.147259 0.824684 5.474998 # Cb LIG
387 55 4 -0.234000 39.212257 8.573684 6.441998 # Cd LIG
388 55 4 -0.234000 39.235260 7.303683 5.889998 # Cd LIG
389 55 1 0.900000 36.528259 2.028685 6.637999 # Ca LIG
390 55 3 0.456000 40.601257 1.134685 8.953999 # Cc LIG
391 55 2 -0.314000 38.554260 6.369684 8.025999 # Cb LIG
392 55 4 -0.234000 38.515259 7.676684 8.544998 # Cd LIG
393 55 2 -0.314000 38.847260 8.797685 7.786999 # Cb LIG
394 55 4 -0.234000 20.646645 37.551136 8.739999 # Cd LIG
395 55 4 -0.234000 41.425259 0.279684 8.187999 # Cd LIG
396 55 1 0.900000 38.213257 5.264685 8.948998 # Ca LIG
397 55 10 -0.903000 39.532257 1.707685 8.370998 # Oc LIG
398 55 8 -0.899000 38.337257 4.048684 8.520998 # Oa LIG
399 55 9 -0.752000 40.567257 2.402684 5.522999 # Ob LIG
400 55 10 -0.903000 38.951260 4.949684 6.067999 # Oc LIG
401 55 8 -0.899000 37.520260 2.743684 6.211999 # Oa LIG
402 55 9 -0.752000 37.829258 5.495685 10.139998 # Ob LIG
403 55 10 -0.903000 36.435257 2.825685 3.758999 # Oc LIG
404 55 8 -0.899000 39.060257 2.691684 3.904999 # Oa LIG
405 55 9 -0.752000 36.519257 1.578684 7.828999 # Ob LIG
406 55 10 -0.903000 25.490644 35.078136 5.464999 # Oc LIG
407 55 8 -0.899000 28.114643 35.222137 5.316998 # Oa LIG
408 55 9 -0.752000 25.570644 36.320137 8.313999 # Ob LIG
409 55 10 -0.903000 28.005646 32.958138 10.074999 # Oc LIG
410 55 8 -0.899000 26.576645 35.161137 9.930999 # Oa LIG
411 55 9 -0.752000 26.900644 32.406136 6.001999 # Ob LIG
412 55 10 -0.903000 28.586643 36.199135 7.771998 # Oc LIG
413 55 8 -0.899000 27.397644 33.854137 7.621999 # Oa LIG
414 55 9 -0.752000 29.623646 35.506134 3.699999 # Ob LIG
415 55 6 0.186000 23.396852 37.129227 15.792995 # H LIG
416 55 6 0.186000 28.527853 30.764229 11.315995 # H LIG
417 55 6 0.186000 28.503853 28.483229 17.272995 # H LIG
418 55 6 0.186000 27.284853 30.119228 13.480995 # H LIG
419 55 6 0.186000 10.295465 1.022777 14.947995 # H LIG
420 55 6 0.186000 30.208853 37.794228 15.917995 # H LIG
421 55 6 0.186000 31.419853 36.976227 11.180995 # H LIG
422 55 6 0.186000 21.331852 36.816227 12.637995 # H LIG
423 55 6 0.186000 23.295853 35.672230 13.607995 # H LIG
424 55 6 0.186000 42.356468 0.926777 11.885996 # H LIG
425 55 6 0.186000 32.280464 1.081777 10.428995 # H LIG
426 55 6 0.186000 34.242466 2.222776 16.375996 # H LIG
427 55 6 0.186000 39.513466 9.424777 12.743996 # H LIG
428 55 6 0.186000 34.348465 0.767776 14.192995 # H LIG
429 55 6 0.186000 39.534466 7.153777 11.770995 # H LIG
430 55 6 0.186000 41.147469 0.106776 14.066996 # H LIG
431 55 6 0.186000 21.232853 36.871227 15.039995 # H LIG
432 55 6 0.186000 38.198467 7.785777 16.502995 # H LIG
433 55 7 1.560000 26.849854 33.841228 11.488996 # Mg LIG
434 55 7 1.560000 28.408852 34.755226 16.102995 # Mg LIG
435 55 7 1.560000 26.831852 35.647228 13.796995 # Mg LIG
436 55 7 1.560000 37.778465 2.259776 16.185995 # Mg LIG
437 55 7 1.560000 37.792465 4.073776 11.574995 # Mg LIG
438 55 7 1.560000 39.352467 3.154777 13.880995 # Mg LIG
439 55 3 0.456000 27.955853 31.747229 16.416996 # Cc LIG
440 55 2 -0.314000 24.451853 36.127228 10.427996 # Cb LIG
441 55 4 -0.234000 23.335854 36.800228 16.830996 # Cd LIG
442 55 2 -0.314000 22.197853 37.074226 10.669995 # Cb LIG
443 55 4 -0.234000 28.231853 29.333229 16.643995 # Cd LIG
444 55 4 -0.234000 28.254852 30.605228 17.190994 # Cd LIG
445 55 1 0.900000 25.582851 35.873230 16.424995 # Ca LIG
446 55 3 0.456000 29.659853 36.768227 14.110995 # Cc LIG
447 55 2 -0.314000 27.619854 31.536228 15.038996 # Cb LIG
448 55 4 -0.234000 27.585854 30.229229 14.522995 # Cd LIG
449 55 2 -0.314000 27.899853 29.108229 15.289995 # Cb LIG
450 55 4 -0.234000 9.708466 0.342776 14.326996 # Cd LIG
451 55 4 -0.234000 30.486853 37.618229 14.876995 # Cd LIG
452 55 1 0.900000 27.280853 32.640228 14.113996 # Ca LIG
453 55 3 0.456000 24.461853 35.719227 11.801995 # Cc LIG
454 55 2 -0.314000 30.016853 36.571228 12.735995 # Cb LIG
455 55 4 -0.234000 31.166853 37.194229 12.218995 # Cd LIG
456 55 2 -0.314000 10.081466 0.146776 12.978995 # Cb LIG
457 55 4 -0.234000 22.214853 36.652229 12.016995 # Cd LIG
458 55 4 -0.234000 23.308853 36.003227 12.567995 # Cd LIG
459 55 1 0.900000 29.231853 35.724228 11.811996 # Ca LIG
460 55 3 0.456000 35.408466 2.185777 11.260995 # Cc LIG
461 55 2 -0.314000 40.958466 1.331777 17.247995 # Cb LIG
462 55 4 -0.234000 42.103466 0.709777 10.846995 # Cd LIG
463 55 2 -0.314000 21.020853 37.748230 17.006996 # Cb LIG
464 55 4 -0.234000 33.164467 1.247777 11.047996 # Cd LIG
465 55 4 -0.234000 34.255466 1.898777 10.496995 # Cd LIG
466 55 1 0.900000 40.175468 2.189776 11.251995 # Ca LIG
467 55 3 0.456000 38.908466 6.162777 13.571995 # Cc LIG
468 55 2 -0.314000 35.400467 1.777777 12.634995 # Cb LIG
469 55 4 -0.234000 34.285469 1.096777 13.154995 # Cd LIG
470 55 2 -0.314000 33.148468 0.826777 12.394996 # Cb LIG
471 55 4 -0.234000 39.213467 8.575776 13.361996 # Cd LIG
472 55 4 -0.234000 39.236465 7.305776 12.809996 # Cd LIG
473 55 1 0.900000 36.529465 2.030777 13.557995 # Ca LIG
474 55 3 0.456000 40.602467 1.136777 15.873995 # Cc LIG
475 55 2 -0.314000 38.555466 6.371777 14.945995 # Cb LIG
476 55 4 -0.234000 38.516468 7.678777 15.464995 # Cd LIG
477 55 2 -0.314000 38.848465 8.799777 14.706995 # Cb LIG
478 55 4 -0.234000 20.647854 37.553230 15.659996 # Cd LIG
479 55 4 -0.234000 41.426468 0.281776 15.107996 # Cd LIG
480 55 1 0.900000 38.214466 5.266777 15.868996 # Ca LIG
481 55 10 -0.903000 39.533466 1.709777 15.290995 # Oc LIG
482 55 8 -0.899000 38.338467 4.050776 15.440995 # Oa LIG
483 55 9 -0.752000 40.568466 2.404777 12.442995 # Ob LIG
484 55 10 -0.903000 38.952465 4.951777 12.987995 # Oc LIG
485 55 8 -0.899000 37.521465 2.745776 13.131995 # Oa LIG
486 55 9 -0.752000 37.830467 5.497777 17.059996 # Ob LIG
487 55 10 -0.903000 36.436466 2.827777 10.678995 # Oc LIG
488 55 8 -0.899000 39.061466 2.693776 10.824995 # Oa LIG
489 55 9 -0.752000 36.520466 1.580776 14.748995 # Ob LIG
490 55 10 -0.903000 25.491852 35.080227 12.384995 # Oc LIG
491 55 8 -0.899000 28.115852 35.224228 12.236996 # Oa LIG
492 55 9 -0.752000 25.571854 36.322227 15.233995 # Ob LIG
493 55 10 -0.903000 28.006853 32.960228 16.994995 # Oc LIG
494 55 8 -0.899000 26.577854 35.163227 16.850996 # Oa LIG
495 55 9 -0.752000 26.901852 32.408226 12.921995 # Ob LIG
496 55 10 -0.903000 28.587852 36.201229 14.691996 # Oc LIG
497 55 8 -0.899000 27.398853 33.856228 14.541996 # Oa LIG
498 55 9 -0.752000 29.624853 35.508228 10.619995 # Ob LIG
499 55 6 0.186000 34.341370 18.151117 22.712994 # H LIG
500 55 6 0.186000 39.472366 11.786119 18.235992 # H LIG
501 55 6 0.186000 39.448368 9.505118 24.192993 # H LIG
502 55 6 0.186000 38.229370 11.141118 20.400993 # H LIG
503 55 6 0.186000 43.129368 19.938116 21.867992 # H LIG
504 55 6 0.186000 41.153366 18.816118 22.837994 # H LIG
505 55 6 0.186000 42.364368 17.998117 18.100994 # H LIG
506 55 6 0.186000 32.276367 17.838118 19.557993 # H LIG
507 55 6 0.186000 34.240368 16.694117 20.527992 # H LIG
508 55 6 0.186000 31.414368 19.842117 18.805994 # H LIG
509 55 6 0.186000 21.338367 19.997118 17.348993 # H LIG
510 55 6 0.186000 23.300367 21.138117 23.295994 # H LIG
511 55 6 0.186000 28.571369 28.340117 19.663994 # H LIG
512 55 6 0.186000 23.406366 19.683117 21.112993 # H LIG
513 55 6 0.186000 28.592369 26.069117 18.690994 # H LIG
514 55 6 0.186000 30.205368 19.022116 20.986994 # H LIG
515 55 6 0.186000 32.177368 17.893118 21.959993 # H LIG
516 55 6 0.186000 27.256367 26.701117 23.422993 # H LIG
517 55 7 1.560000 37.794369 14.863118 18.408993 # Mg LIG
518 55 7 1.560000 39.353367 15.777118 23.022993 # Mg LIG
519 55 7 1.560000 37.776367 16.669117 20.716993 # Mg LIG
520 55 7 1.560000 26.836367 21.175116 23.105993 # Mg LIG
521 55 7 1.560000 26.850367 22.989117 18.494993 # Mg LIG
522 55 7 1.560000 28.410368 22.070116 20.800993 # Mg LIG
523 55 3 0.456000 38.900368 12.769118 23.336994 # Cc LIG
524 55 2 -0.314000 35.396370 17.149117 17.347994 # Cb LIG
525 55 4 -0.234000 34.280369 17.822117 23.750994 # Cd LIG