LAMMPS data file. CGCMM style. atom_style full generated by VMD/TopoTools v1.5 on Tue May 02 12:05:28 PDT 2017
 1314 atoms
 0 bonds
 0 angles
 0 dihedrals
 0 impropers
 10 atom types
 0 bond types
 0 angle types
 0 dihedral types
 0 improper types
 0.439550 26.456750  xlo xhi
 0.332838 45.395937  ylo yhi
 -0.387750 26.927729  zlo zhi

# Pair Coeffs
#
# 1  CH4
# 2  Ca
# 3  Cb
# 4  Cc
# 5  Cd
# 6  H
# 7  Ni
# 8  Oa
# 9  Ob
# 10  Oc

 Masses

 1 16.040001 # CH4
 2 12.011000 # Ca
 3 12.011000 # Cb
 4 12.011000 # Cc
 5 12.011000 # Cd
 6 1.008000 # H
 7 58.693001 # Ni
 8 15.999000 # Oa
 9 15.999000 # Ob
 10 15.999000 # Oc

 Atoms

1 1 1 0.000000 26.017300 45.062775 16.389000 # CH4 
2 2 1 0.000000 26.017300 45.062775 21.852001 # CH4 
3 3 1 0.000000 26.017300 45.062775 0.000000 # CH4 
4 4 1 0.000000 26.017300 45.062775 5.463000 # CH4 
5 5 1 0.000000 26.017300 45.062775 10.926000 # CH4 
6 6 1 0.000000 26.017300 22.531775 16.389000 # CH4 
7 7 1 0.000000 26.017300 22.531775 21.852001 # CH4 
8 8 1 0.000000 26.017300 22.531775 0.000000 # CH4 
9 9 1 0.000000 26.017300 22.531775 5.463000 # CH4 
10 10 1 0.000000 26.017300 22.531775 10.926000 # CH4 
11 11 1 0.000000 13.008301 45.062775 16.389000 # CH4 
12 12 1 0.000000 13.008301 45.062775 21.852001 # CH4 
13 13 1 0.000000 13.008301 45.062775 0.000000 # CH4 
14 14 1 0.000000 13.008301 45.062775 5.463000 # CH4 
15 15 1 0.000000 13.008301 45.062775 10.926000 # CH4 
16 16 1 0.000000 13.008301 22.531775 16.389000 # CH4 
17 17 1 0.000000 13.008301 22.531775 21.852001 # CH4 
18 18 1 0.000000 13.008301 22.531775 0.000000 # CH4 
19 19 9 0.000000 23.941000 21.823999 20.945980 # Ob LIG
20 19 9 0.000000 10.932000 44.355999 20.945980 # Ob LIG
21 19 9 0.000000 23.941000 6.803000 23.221979 # Ob LIG
22 19 9 0.000000 10.932000 29.334000 23.221979 # Ob LIG
23 19 10 0.000000 23.514999 7.995000 20.491980 # Oc LIG
24 19 10 0.000000 10.506000 30.527000 20.491980 # Oc LIG
25 19 8 0.000000 22.554001 7.442000 18.022980 # Oa LIG
26 19 8 0.000000 9.546000 29.973000 18.022980 # Oa LIG
27 19 8 0.000000 22.554001 22.462999 22.575979 # Oa LIG
28 19 8 0.000000 9.546000 44.993999 22.575979 # Oa LIG
29 19 8 0.000000 21.304001 8.301000 22.575979 # Oa LIG
30 19 8 0.000000 8.295000 30.833000 22.575979 # Oa LIG
31 19 9 0.000000 21.164000 9.821000 20.945980 # Ob LIG
32 19 9 0.000000 8.155000 32.353001 20.945980 # Ob LIG
33 19 10 0.000000 21.184000 20.701000 20.491980 # Oc LIG
34 19 10 0.000000 8.176000 43.233002 20.491980 # Oc LIG
35 19 8 0.000000 21.184999 21.809999 18.022980 # Oa LIG
36 19 8 0.000000 8.176000 44.341000 18.022980 # Oa LIG
37 19 9 0.000000 19.938000 20.927999 23.221979 # Ob LIG
38 19 9 0.000000 6.930000 43.459999 23.221979 # Ob LIG
39 19 9 0.000000 19.087999 16.624001 22.302979 # Ob LIG
40 19 9 0.000000 6.079000 39.155998 22.302979 # Ob LIG
41 19 10 0.000000 18.681999 13.676000 22.756979 # Oc LIG
42 19 10 0.000000 5.673000 36.207001 22.756979 # Oc LIG
43 19 8 0.000000 17.841000 15.743000 20.672979 # Oa LIG
44 19 8 0.000000 4.833000 38.275002 20.672979 # Oa LIG
45 19 10 0.000000 17.841999 16.851000 18.204979 # Oc LIG
46 19 10 0.000000 4.833000 39.382999 18.204979 # Oc LIG
47 19 10 0.000000 10.506000 0.485000 18.214979 # Oc LIG
48 19 10 0.000000 23.514999 23.017000 18.214979 # Oc LIG
49 19 10 0.000000 10.506000 15.506000 22.767979 # Oc LIG
50 19 10 0.000000 23.514999 38.036999 22.767979 # Oc LIG
51 19 9 0.000000 10.932000 14.313000 18.668980 # Ob LIG
52 19 9 0.000000 23.941000 36.845001 18.668980 # Ob LIG
53 19 9 0.000000 15.085000 0.708000 20.026979 # Ob LIG
54 19 9 0.000000 2.076000 23.239000 20.026979 # Ob LIG
55 19 9 0.000000 15.085000 15.729000 17.750980 # Ob LIG
56 19 9 0.000000 2.077000 38.259998 17.750980 # Ob LIG
57 19 10 0.000000 15.511000 14.536000 20.480980 # Oc LIG
58 19 10 0.000000 2.503000 37.068001 20.480980 # Oc LIG
59 19 8 0.000000 16.471001 15.090000 22.948978 # Oa LIG
60 19 8 0.000000 3.463000 37.620998 22.948978 # Oa LIG
61 19 8 0.000000 16.471001 0.069000 18.396980 # Oa LIG
62 19 8 0.000000 3.463000 22.601000 18.396980 # Oa LIG
63 19 8 0.000000 17.722000 14.230000 18.396980 # Oa LIG
64 19 8 0.000000 4.713000 36.762001 18.396980 # Oa LIG
65 19 9 0.000000 17.862000 12.710000 20.026979 # Ob LIG
66 19 9 0.000000 4.853000 35.242001 20.026979 # Ob LIG
67 19 10 0.000000 17.841000 1.831000 20.480980 # Oc LIG
68 19 10 0.000000 4.833000 24.362000 20.480980 # Oc LIG
69 19 8 0.000000 17.841000 0.722000 22.948978 # Oa LIG
70 19 8 0.000000 4.833000 23.254000 22.948978 # Oa LIG
71 19 9 0.000000 19.087000 1.603000 17.750980 # Ob LIG
72 19 9 0.000000 6.079000 24.135000 17.750980 # Ob LIG
73 19 9 0.000000 19.938000 5.907000 18.668980 # Ob LIG
74 19 9 0.000000 6.930000 28.438999 18.668980 # Ob LIG
75 19 9 0.000000 2.076000 8.218000 22.302979 # Ob LIG
76 19 9 0.000000 15.085000 30.750000 22.302979 # Ob LIG
77 19 10 0.000000 2.503000 7.026000 18.204979 # Oc LIG
78 19 10 0.000000 15.511000 29.556999 18.204979 # Oc LIG
79 19 10 0.000000 2.503000 22.047001 22.756979 # Oc LIG
80 19 10 0.000000 15.511000 44.577999 22.756979 # Oc LIG
81 19 10 0.000000 20.344000 8.856000 18.215981 # Oc LIG
82 19 10 0.000000 7.336000 31.388000 18.215981 # Oc LIG
83 19 8 0.000000 21.184999 6.789000 20.299980 # Oa LIG
84 19 8 0.000000 8.176000 29.320000 20.299980 # Oa LIG
85 19 10 0.000000 21.184000 5.680000 22.767979 # Oc LIG
86 19 10 0.000000 8.176000 28.212000 22.767979 # Oc LIG
87 19 8 0.000000 3.463000 7.579000 20.672979 # Oa LIG
88 19 8 0.000000 16.471001 30.111000 20.672979 # Oa LIG
89 19 8 0.000000 4.713000 6.720000 22.948978 # Oa LIG
90 19 8 0.000000 17.722000 29.250999 22.948978 # Oa LIG
91 19 8 0.000000 4.713000 21.740999 20.672979 # Oa LIG
92 19 8 0.000000 17.722000 44.271999 20.672979 # Oa LIG
93 19 9 0.000000 4.853000 5.200000 17.750980 # Ob LIG
94 19 9 0.000000 17.862000 27.731001 17.750980 # Ob LIG
95 19 9 0.000000 4.853000 20.221001 22.302979 # Ob LIG
96 19 9 0.000000 17.862000 42.751999 22.302979 # Ob LIG
97 19 10 0.000000 4.833000 9.341000 22.756979 # Oc LIG
98 19 10 0.000000 17.841000 31.872999 22.756979 # Oc LIG
99 19 8 0.000000 4.833000 8.232000 18.396980 # Oa LIG
100 19 8 0.000000 17.841000 30.764000 18.396980 # Oa LIG
101 19 10 0.000000 5.673000 6.165000 20.480980 # Oc LIG
102 19 10 0.000000 18.681999 28.697001 20.480980 # Oc LIG
103 19 10 0.000000 5.673000 21.186001 18.204979 # Oc LIG
104 19 10 0.000000 18.681000 43.717999 18.204979 # Oc LIG
105 19 9 0.000000 6.079000 9.114000 20.026979 # Ob LIG
106 19 9 0.000000 19.087000 31.645000 20.026979 # Ob LIG
107 19 9 0.000000 6.930000 13.418000 20.945980 # Ob LIG
108 19 9 0.000000 19.938000 35.949001 20.945980 # Ob LIG
109 19 10 0.000000 7.336000 1.345000 22.767979 # Oc LIG
110 19 10 0.000000 20.344000 23.877001 22.767979 # Oc LIG
111 19 10 0.000000 7.336000 16.365999 20.491980 # Oc LIG
112 19 10 0.000000 20.344000 38.897999 20.491980 # Oc LIG
113 19 8 0.000000 8.176000 14.299000 22.575979 # Oa LIG
114 19 8 0.000000 21.184999 36.831001 22.575979 # Oa LIG
115 19 10 0.000000 8.176000 13.190000 18.214979 # Oc LIG
116 19 10 0.000000 21.184000 35.722000 18.214979 # Oc LIG
117 19 9 0.000000 8.155000 2.311000 18.668980 # Ob LIG
118 19 9 0.000000 21.164000 24.841999 18.668980 # Ob LIG
119 19 9 0.000000 8.155000 17.332001 23.221979 # Ob LIG
120 19 9 0.000000 21.164000 39.862999 23.221979 # Ob LIG
121 19 8 0.000000 8.296000 0.791000 20.299980 # Oa LIG
122 19 8 0.000000 21.304001 23.322001 20.299980 # Oa LIG
123 19 8 0.000000 8.295000 15.812000 18.022980 # Oa LIG
124 19 8 0.000000 21.304001 38.342999 18.022980 # Oa LIG
125 19 8 0.000000 9.546000 14.952000 20.299980 # Oa LIG
126 19 8 0.000000 22.554001 37.484001 20.299980 # Oa LIG
127 19 5 0.000000 25.868000 7.878000 20.672979 # Cd LIG
128 19 5 0.000000 12.860000 30.409000 20.672979 # Cd LIG
129 19 3 0.000000 24.879999 7.373000 18.527981 # Cb LIG
130 19 3 0.000000 11.871000 29.905001 18.527981 # Cb LIG
131 19 3 0.000000 24.879999 22.393999 23.080978 # Cb LIG
132 19 3 0.000000 11.871000 44.925999 23.080978 # Cb LIG
133 19 4 0.000000 24.708000 7.749000 19.900980 # Cc LIG
134 19 4 0.000000 11.699000 30.280001 19.900980 # Cc LIG
135 19 2 0.000000 23.745001 22.209999 22.137980 # Ca LIG
136 19 2 0.000000 10.736000 44.741001 22.137980 # Ca LIG
137 19 2 0.000000 23.745001 7.188000 17.585979 # Ca LIG
138 19 2 0.000000 10.736000 29.719999 17.585979 # Ca LIG
139 19 2 0.000000 20.927999 9.459000 22.137980 # Ca LIG
140 19 2 0.000000 7.919000 31.990999 22.137980 # Ca LIG
141 19 4 0.000000 20.374001 19.791000 19.900980 # Cc LIG
142 19 4 0.000000 7.365000 42.323002 19.900980 # Cc LIG
143 19 2 0.000000 20.370001 20.905001 17.585979 # Ca LIG
144 19 2 0.000000 7.361000 43.437000 17.585979 # Ca LIG
145 19 3 0.000000 20.201000 10.350000 23.080978 # Cb LIG
146 19 3 0.000000 7.192000 32.881001 23.080978 # Cb LIG
147 19 3 0.000000 19.962999 19.830000 18.527981 # Cb LIG
148 19 3 0.000000 6.954000 42.362000 18.527981 # Cb LIG
149 19 5 0.000000 19.905001 18.722000 20.672979 # Cd LIG
150 19 5 0.000000 6.897000 41.252998 20.672979 # Cd LIG
151 19 5 0.000000 19.757000 11.578000 22.575979 # Cd LIG
152 19 5 0.000000 6.749000 34.110001 22.575979 # Cd LIG
153 19 5 0.000000 19.120001 18.830999 18.022980 # Cd LIG
154 19 5 0.000000 6.112000 41.362999 18.022980 # Cd LIG
155 19 3 0.000000 19.063000 17.723000 20.167980 # Cb LIG
156 19 3 0.000000 6.055000 40.254002 20.167980 # Cb LIG
157 19 4 0.000000 19.065001 12.519000 23.347980 # Cc LIG
158 19 4 0.000000 6.056000 35.050999 23.347980 # Cc LIG
159 19 2 0.000000 18.656000 16.646999 21.110979 # Ca LIG
160 19 2 0.000000 5.647000 39.179001 21.110979 # Ca LIG
161 19 4 0.000000 18.652000 17.761000 18.795979 # Cc LIG
162 19 4 0.000000 5.643000 40.292999 18.795979 # Cc LIG
163 19 5 0.000000 0.149000 7.143000 18.022980 # Cd LIG
164 19 5 0.000000 13.157000 29.674999 18.022980 # Cd LIG
165 19 5 0.000000 0.149000 22.164000 22.575979 # Cd LIG
166 19 5 0.000000 13.157000 44.695999 22.575979 # Cd LIG
167 19 3 0.000000 1.137000 7.648000 20.167980 # Cb LIG
168 19 3 0.000000 14.146000 30.179001 20.167980 # Cb LIG
169 19 4 0.000000 1.309000 22.292999 23.347980 # Cc LIG
170 19 4 0.000000 14.318000 44.825001 23.347980 # Cc LIG
171 19 4 0.000000 1.309000 7.272000 18.795979 # Cc LIG
172 19 4 0.000000 14.318000 29.804001 18.795979 # Cc LIG
173 19 2 0.000000 10.736000 14.699000 19.861980 # Ca LIG
174 19 2 0.000000 23.745001 37.230000 19.861980 # Ca LIG
175 19 4 0.000000 11.699000 15.259000 22.176979 # Cc LIG
176 19 4 0.000000 24.708000 37.791000 22.176979 # Cc LIG
177 19 4 0.000000 11.699000 0.238000 17.624979 # Cc LIG
178 19 4 0.000000 24.708000 22.770000 17.624979 # Cc LIG
179 19 3 0.000000 11.871000 14.884000 20.804979 # Cb LIG
180 19 3 0.000000 24.879999 37.415001 20.804979 # Cb LIG
181 19 5 0.000000 12.860000 0.367000 18.396980 # Cd LIG
182 19 5 0.000000 25.868999 22.899000 18.396980 # Cd LIG
183 19 5 0.000000 12.860000 15.388000 22.949980 # Cd LIG
184 19 5 0.000000 25.868000 37.919998 22.949980 # Cd LIG
185 19 5 0.000000 13.157000 14.654000 20.299980 # Cd LIG
186 19 5 0.000000 0.149000 37.185001 20.299980 # Cd LIG
187 19 3 0.000000 14.146000 15.158000 22.443979 # Cb LIG
188 19 3 0.000000 1.137000 37.689999 22.443979 # Cb LIG
189 19 3 0.000000 14.146000 0.137000 17.891979 # Cb LIG
190 19 3 0.000000 1.137000 22.669001 17.891979 # Cb LIG
191 19 4 0.000000 14.318000 14.783000 21.071980 # Cc LIG
192 19 4 0.000000 1.309000 37.313999 21.071980 # Cc LIG
193 19 2 0.000000 15.281000 0.322000 18.834980 # Ca LIG
194 19 2 0.000000 2.272000 22.854000 18.834980 # Ca LIG
195 19 2 0.000000 15.281000 15.343000 23.386980 # Ca LIG
196 19 2 0.000000 2.272000 37.875000 23.386980 # Ca LIG
197 19 2 0.000000 18.098000 13.072000 18.833981 # Ca LIG
198 19 2 0.000000 5.089000 35.604000 18.833981 # Ca LIG
199 19 4 0.000000 18.652000 2.740000 21.071980 # Cc LIG
200 19 4 0.000000 5.643000 25.271999 21.071980 # Cc LIG
201 19 2 0.000000 18.656000 1.626000 23.386980 # Ca LIG
202 19 2 0.000000 5.647000 24.158001 23.386980 # Ca LIG
203 19 3 0.000000 18.825001 12.182000 17.891979 # Cb LIG
204 19 3 0.000000 5.816000 34.714001 17.891979 # Cb LIG
205 19 3 0.000000 19.063000 2.701000 22.443979 # Cb LIG
206 19 3 0.000000 6.055000 25.233000 22.443979 # Cb LIG
207 19 5 0.000000 19.120001 3.810000 20.299980 # Cd LIG
208 19 5 0.000000 6.111000 26.341999 20.299980 # Cd LIG
209 19 5 0.000000 19.268999 10.953000 18.396980 # Cd LIG
210 19 5 0.000000 6.260000 33.485001 18.396980 # Cd LIG
211 19 5 0.000000 19.906000 3.700000 22.948978 # Cd LIG
212 19 5 0.000000 6.897000 26.232000 22.948978 # Cd LIG
213 19 2 0.000000 2.272000 7.833000 21.110979 # Ca LIG
214 19 2 0.000000 15.281000 30.364000 21.110979 # Ca LIG
215 19 3 0.000000 19.962000 4.809000 20.804979 # Cb LIG
216 19 3 0.000000 6.954000 27.341000 20.804979 # Cb LIG
217 19 4 0.000000 19.961000 10.013000 17.624979 # Cc LIG
218 19 4 0.000000 6.953000 32.543999 17.624979 # Cc LIG
219 19 2 0.000000 20.370001 5.884000 19.861980 # Ca LIG
220 19 2 0.000000 7.361000 28.416000 19.861980 # Ca LIG
221 19 4 0.000000 20.374001 4.770000 22.176979 # Cc LIG
222 19 4 0.000000 7.366000 27.302000 22.176979 # Cc LIG
223 19 2 0.000000 5.089000 5.562000 23.386980 # Ca LIG
224 19 2 0.000000 18.098000 28.093000 23.386980 # Ca LIG
225 19 2 0.000000 5.089000 20.583000 21.110979 # Ca LIG
226 19 2 0.000000 18.098000 43.115002 21.110979 # Ca LIG
227 19 4 0.000000 5.643000 10.251000 23.347980 # Cc LIG
228 19 4 0.000000 18.652000 32.783001 23.347980 # Cc LIG
229 19 2 0.000000 5.647000 9.137000 18.834980 # Ca LIG
230 19 2 0.000000 18.656000 31.667999 18.834980 # Ca LIG
231 19 3 0.000000 5.816000 4.671000 22.443979 # Cb LIG
232 19 3 0.000000 18.825001 27.202999 22.443979 # Cb LIG
233 19 3 0.000000 5.817000 19.693001 20.167980 # Cb LIG
234 19 3 0.000000 18.825001 42.223999 20.167980 # Cb LIG
235 19 4 0.000000 6.056000 5.008000 21.071980 # Cc LIG
236 19 4 0.000000 19.065001 27.540001 21.071980 # Cc LIG
237 19 4 0.000000 6.056000 20.028999 18.795979 # Cc LIG
238 19 4 0.000000 19.063999 42.561001 18.795979 # Cc LIG
239 19 3 0.000000 6.055000 10.212000 17.891979 # Cb LIG
240 19 3 0.000000 19.063000 32.743000 17.891979 # Cb LIG
241 19 5 0.000000 6.111000 11.321000 22.575979 # Cd LIG
242 19 5 0.000000 19.120001 33.852001 22.575979 # Cd LIG
243 19 5 0.000000 6.260000 3.443000 22.948978 # Cd LIG
244 19 5 0.000000 19.268999 25.974001 22.948978 # Cd LIG
245 19 5 0.000000 6.261000 18.464001 20.672979 # Cd LIG
246 19 5 0.000000 19.268999 40.994999 20.672979 # Cd LIG
247 19 5 0.000000 6.748000 4.068000 20.299980 # Cd LIG
248 19 5 0.000000 19.757000 26.599001 20.299980 # Cd LIG
249 19 5 0.000000 6.748000 19.089001 18.022980 # Cd LIG
250 19 5 0.000000 19.757000 41.619999 18.022980 # Cd LIG
251 19 5 0.000000 6.897000 11.211000 18.396980 # Cd LIG
252 19 5 0.000000 19.906000 33.742001 18.396980 # Cd LIG
253 19 3 0.000000 6.954000 12.320000 23.080978 # Cb LIG
254 19 3 0.000000 19.962000 34.851002 23.080978 # Cb LIG
255 19 4 0.000000 6.953000 2.502000 22.176979 # Cc LIG
256 19 4 0.000000 19.961000 25.034000 22.176979 # Cc LIG
257 19 4 0.000000 6.953000 17.523001 19.900980 # Cc LIG
258 19 4 0.000000 19.961000 40.055000 19.900980 # Cc LIG
259 19 3 0.000000 7.192000 2.839000 20.804979 # Cb LIG
260 19 3 0.000000 20.201000 25.371000 20.804979 # Cb LIG
261 19 3 0.000000 7.192000 17.860001 18.527981 # Cb LIG
262 19 3 0.000000 20.201000 40.390999 18.527981 # Cb LIG
263 19 2 0.000000 7.361000 13.395000 22.137980 # Ca LIG
264 19 2 0.000000 20.370001 35.925999 22.137980 # Ca LIG
265 19 4 0.000000 7.366000 12.281000 17.624979 # Cc LIG
266 19 4 0.000000 20.374001 34.812000 17.624979 # Cc LIG
267 19 2 0.000000 7.919000 1.949000 19.861980 # Ca LIG
268 19 2 0.000000 20.927999 24.480000 19.861980 # Ca LIG
269 19 2 0.000000 7.919000 16.969999 17.585979 # Ca LIG
270 19 2 0.000000 20.927999 39.500999 17.585979 # Ca LIG
271 19 6 0.000000 25.764999 8.173000 21.715981 # H LIG
272 19 6 0.000000 12.756000 30.704000 21.715981 # H LIG
273 19 6 0.000000 20.212999 18.664000 21.715981 # H LIG
274 19 6 0.000000 7.204000 41.195999 21.715981 # H LIG
275 19 6 0.000000 19.961000 11.816000 21.532980 # H LIG
276 19 6 0.000000 6.952000 34.347000 21.532980 # H LIG
277 19 6 0.000000 18.813000 18.889000 23.808979 # H LIG
278 19 6 0.000000 5.805000 41.419998 23.808979 # H LIG
279 19 6 0.000000 0.252000 6.849000 23.808979 # H LIG
280 19 6 0.000000 13.261000 29.379999 23.808979 # H LIG
281 19 6 0.000000 0.252000 21.870001 21.532980 # H LIG
282 19 6 0.000000 13.261000 44.401001 21.532980 # H LIG
283 19 6 0.000000 12.756000 0.662000 19.439980 # H LIG
284 19 6 0.000000 25.764999 23.194000 19.439980 # H LIG
285 19 6 0.000000 12.756000 15.683000 17.163979 # H LIG
286 19 6 0.000000 25.764999 38.215000 17.163979 # H LIG
287 19 6 0.000000 13.261000 14.359000 19.255980 # H LIG
288 19 6 0.000000 0.252000 36.890999 19.255980 # H LIG
289 19 6 0.000000 18.813000 3.868000 19.256979 # H LIG
290 19 6 0.000000 5.804000 26.399000 19.256979 # H LIG
291 19 6 0.000000 19.065001 10.716000 19.439980 # H LIG
292 19 6 0.000000 6.057000 33.248001 19.439980 # H LIG
293 19 6 0.000000 20.212999 3.643000 17.163979 # H LIG
294 19 6 0.000000 7.204000 26.174000 17.163979 # H LIG
295 19 6 0.000000 5.804000 11.378000 21.532980 # H LIG
296 19 6 0.000000 18.813000 33.910000 21.532980 # H LIG
297 19 6 0.000000 6.057000 3.205000 17.163979 # H LIG
298 19 6 0.000000 19.065001 25.737000 17.163979 # H LIG
299 19 6 0.000000 6.057000 18.226999 21.715981 # H LIG
300 19 6 0.000000 19.066000 40.757999 21.715981 # H LIG
301 19 6 0.000000 6.952000 4.305000 19.256979 # H LIG
302 19 6 0.000000 19.959999 26.837000 19.256979 # H LIG
303 19 6 0.000000 6.951000 19.326000 23.808979 # H LIG
304 19 6 0.000000 19.959999 41.856998 23.808979 # H LIG
305 19 6 0.000000 7.204000 11.153000 19.439980 # H LIG
306 19 6 0.000000 20.212999 33.685001 19.439980 # H LIG
307 19 7 0.000000 22.488001 21.886000 19.548981 # Ni LIG
308 19 7 0.000000 9.479000 44.417999 19.548981 # Ni LIG
309 19 7 0.000000 20.719000 22.156000 21.825979 # Ni LIG
310 19 7 0.000000 7.710000 44.687000 21.825979 # Ni LIG
311 19 7 0.000000 8.828000 1.021000 17.272980 # Ni LIG
312 19 7 0.000000 21.837000 23.552999 17.272980 # Ni LIG
313 19 7 0.000000 16.538000 0.645000 21.423981 # Ni LIG
314 19 7 0.000000 3.529000 23.177000 21.423981 # Ni LIG
315 19 7 0.000000 18.306999 0.376000 19.147980 # Ni LIG
316 19 7 0.000000 5.299000 22.908001 19.147980 # Ni LIG
317 19 7 0.000000 4.181000 21.510000 23.699980 # Ni LIG
318 19 7 0.000000 17.188999 44.042000 23.699980 # Ni LIG
319 19 7 0.000000 22.488001 6.865000 21.824980 # Ni LIG
320 19 7 0.000000 9.479000 29.396999 21.824980 # Ni LIG
321 19 7 0.000000 21.837000 8.532000 19.548981 # Ni LIG
322 19 7 0.000000 8.828000 31.063000 19.548981 # Ni LIG
323 19 7 0.000000 20.718000 7.135000 17.272980 # Ni LIG
324 19 7 0.000000 7.710000 29.666000 17.272980 # Ni LIG
325 19 7 0.000000 3.529000 8.156000 23.699980 # Ni LIG
326 19 7 0.000000 16.538000 30.688000 23.699980 # Ni LIG
327 19 7 0.000000 4.180000 6.489000 19.147980 # Ni LIG
328 19 7 0.000000 17.188999 29.021000 19.147980 # Ni LIG
329 19 7 0.000000 5.299000 7.886000 21.423981 # Ni LIG
330 19 7 0.000000 18.306999 30.417999 21.423981 # Ni LIG
331 19 7 0.000000 7.710000 14.645000 19.548981 # Ni LIG
332 19 7 0.000000 20.719000 37.176998 19.548981 # Ni LIG
333 19 7 0.000000 8.828000 16.042000 21.824980 # Ni LIG
334 19 7 0.000000 21.837000 38.574001 21.824980 # Ni LIG
335 19 7 0.000000 9.479000 14.375000 17.272980 # Ni LIG
336 19 7 0.000000 22.488001 36.907001 17.272980 # Ni LIG
337 19 7 0.000000 18.306999 15.397000 23.699980 # Ni LIG
338 19 7 0.000000 5.299000 37.929001 23.699980 # Ni LIG
339 19 7 0.000000 16.538000 15.666000 19.146980 # Ni LIG
340 19 7 0.000000 3.529000 38.198002 19.146980 # Ni LIG
341 19 7 0.000000 17.188999 14.000000 21.423981 # Ni LIG
342 19 7 0.000000 4.180000 36.530998 21.423981 # Ni LIG
343 19 9 0.000000 23.941000 21.823999 0.459500 # Ob LIG
344 19 9 0.000000 10.932000 44.355999 0.459500 # Ob LIG
345 19 9 0.000000 23.941000 6.803000 2.735500 # Ob LIG
346 19 9 0.000000 10.932000 29.334000 2.735500 # Ob LIG
347 19 10 0.000000 23.514999 7.995000 0.005500 # Oc LIG
348 19 10 0.000000 10.506000 30.527000 0.005500 # Oc LIG
349 19 8 0.000000 22.554001 7.442000 24.851978 # Oa LIG
350 19 8 0.000000 9.546000 29.973000 24.851978 # Oa LIG
351 19 8 0.000000 22.554001 22.462999 2.089500 # Oa LIG
352 19 8 0.000000 9.546000 44.993999 2.089500 # Oa LIG
353 19 8 0.000000 21.304001 8.301000 2.089500 # Oa LIG
354 19 8 0.000000 8.295000 30.833000 2.089500 # Oa LIG
355 19 9 0.000000 21.164000 9.821000 0.459500 # Ob LIG
356 19 9 0.000000 8.155000 32.353001 0.459500 # Ob LIG
357 19 10 0.000000 21.184000 20.701000 0.005500 # Oc LIG
358 19 10 0.000000 8.176000 43.233002 0.005500 # Oc LIG
359 19 8 0.000000 21.184999 21.809999 24.851978 # Oa LIG
360 19 8 0.000000 8.176000 44.341000 24.851978 # Oa LIG
361 19 9 0.000000 19.938000 20.927999 2.735500 # Ob LIG
362 19 9 0.000000 6.930000 43.459999 2.735500 # Ob LIG
363 19 9 0.000000 19.087999 16.624001 1.816500 # Ob LIG
364 19 9 0.000000 6.079000 39.155998 1.816500 # Ob LIG
365 19 10 0.000000 18.681999 13.676000 2.270500 # Oc LIG
366 19 10 0.000000 5.673000 36.207001 2.270500 # Oc LIG
367 19 8 0.000000 17.841000 15.743000 0.186500 # Oa LIG
368 19 8 0.000000 4.833000 38.275002 0.186500 # Oa LIG
369 19 10 0.000000 17.841999 16.851000 25.033979 # Oc LIG
370 19 10 0.000000 4.833000 39.382999 25.033979 # Oc LIG
371 19 10 0.000000 10.506000 0.485000 25.043980 # Oc LIG
372 19 10 0.000000 23.514999 23.017000 25.043980 # Oc LIG
373 19 10 0.000000 10.506000 15.506000 2.281500 # Oc LIG
374 19 10 0.000000 23.514999 38.036999 2.281500 # Oc LIG
375 19 9 0.000000 10.932000 14.313000 25.497980 # Ob LIG
376 19 9 0.000000 23.941000 36.845001 25.497980 # Ob LIG
377 19 9 0.000000 15.085000 0.708000 26.855980 # Ob LIG
378 19 9 0.000000 2.076000 23.239000 26.855980 # Ob LIG
379 19 9 0.000000 15.085000 15.729000 24.579979 # Ob LIG
380 19 9 0.000000 2.077000 38.259998 24.579979 # Ob LIG
381 19 10 0.000000 15.511000 14.536000 27.309978 # Oc LIG
382 19 10 0.000000 2.503000 37.068001 27.309978 # Oc LIG
383 19 8 0.000000 16.471001 15.090000 2.462500 # Oa LIG
384 19 8 0.000000 3.463000 37.620998 2.462500 # Oa LIG
385 19 8 0.000000 16.471001 0.069000 25.225979 # Oa LIG
386 19 8 0.000000 3.463000 22.601000 25.225979 # Oa LIG
387 19 8 0.000000 17.722000 14.230000 25.225979 # Oa LIG
388 19 8 0.000000 4.713000 36.762001 25.225979 # Oa LIG
389 19 9 0.000000 17.862000 12.710000 26.855980 # Ob LIG
390 19 9 0.000000 4.853000 35.242001 26.855980 # Ob LIG
391 19 10 0.000000 17.841000 1.831000 27.309978 # Oc LIG
392 19 10 0.000000 4.833000 24.362000 27.309978 # Oc LIG
393 19 8 0.000000 17.841000 0.722000 2.462500 # Oa LIG
394 19 8 0.000000 4.833000 23.254000 2.462500 # Oa LIG
395 19 9 0.000000 19.087000 1.603000 24.579979 # Ob LIG
396 19 9 0.000000 6.079000 24.135000 24.579979 # Ob LIG
397 19 9 0.000000 19.938000 5.907000 25.497980 # Ob LIG
398 19 9 0.000000 6.930000 28.438999 25.497980 # Ob LIG
399 19 9 0.000000 2.076000 8.218000 1.816500 # Ob LIG
400 19 9 0.000000 15.085000 30.750000 1.816500 # Ob LIG
401 19 10 0.000000 2.503000 7.026000 25.033979 # Oc LIG
402 19 10 0.000000 15.511000 29.556999 25.033979 # Oc LIG
403 19 10 0.000000 2.503000 22.047001 2.270500 # Oc LIG
404 19 10 0.000000 15.511000 44.577999 2.270500 # Oc LIG
405 19 10 0.000000 20.344000 8.856000 25.044979 # Oc LIG
406 19 10 0.000000 7.336000 31.388000 25.044979 # Oc LIG
407 19 8 0.000000 21.184999 6.789000 27.128979 # Oa LIG
408 19 8 0.000000 8.176000 29.320000 27.128979 # Oa LIG
409 19 10 0.000000 21.184000 5.680000 2.281500 # Oc LIG
410 19 10 0.000000 8.176000 28.212000 2.281500 # Oc LIG
411 19 8 0.000000 3.463000 7.579000 0.186500 # Oa LIG
412 19 8 0.000000 16.471001 30.111000 0.186500 # Oa LIG
413 19 8 0.000000 4.713000 6.720000 2.462500 # Oa LIG
414 19 8 0.000000 17.722000 29.250999 2.462500 # Oa LIG
415 19 8 0.000000 4.713000 21.740999 0.186500 # Oa LIG
416 19 8 0.000000 17.722000 44.271999 0.186500 # Oa LIG
417 19 9 0.000000 4.853000 5.200000 24.579979 # Ob LIG
418 19 9 0.000000 17.862000 27.731001 24.579979 # Ob LIG
419 19 9 0.000000 4.853000 20.221001 1.816500 # Ob LIG
420 19 9 0.000000 17.862000 42.751999 1.816500 # Ob LIG
421 19 10 0.000000 4.833000 9.341000 2.270500 # Oc LIG
422 19 10 0.000000 17.841000 31.872999 2.270500 # Oc LIG
423 19 8 0.000000 4.833000 8.232000 25.225979 # Oa LIG
424 19 8 0.000000 17.841000 30.764000 25.225979 # Oa LIG
425 19 10 0.000000 5.673000 6.165000 27.309978 # Oc LIG
426 19 10 0.000000 18.681999 28.697001 27.309978 # Oc LIG
427 19 10 0.000000 5.673000 21.186001 25.033979 # Oc LIG
428 19 10 0.000000 18.681000 43.717999 25.033979 # Oc LIG
429 19 9 0.000000 6.079000 9.114000 26.855980 # Ob LIG
430 19 9 0.000000 19.087000 31.645000 26.855980 # Ob LIG
431 19 9 0.000000 6.930000 13.418000 0.459500 # Ob LIG
432 19 9 0.000000 19.938000 35.949001 0.459500 # Ob LIG
433 19 10 0.000000 7.336000 1.345000 2.281500 # Oc LIG
434 19 10 0.000000 20.344000 23.877001 2.281500 # Oc LIG
435 19 10 0.000000 7.336000 16.365999 0.005500 # Oc LIG
436 19 10 0.000000 20.344000 38.897999 0.005500 # Oc LIG
437 19 8 0.000000 8.176000 14.299000 2.089500 # Oa LIG
438 19 8 0.000000 21.184999 36.831001 2.089500 # Oa LIG
439 19 10 0.000000 8.176000 13.190000 25.043980 # Oc LIG
440 19 10 0.000000 21.184000 35.722000 25.043980 # Oc LIG
441 19 9 0.000000 8.155000 2.311000 25.497980 # Ob LIG
442 19 9 0.000000 21.164000 24.841999 25.497980 # Ob LIG
443 19 9 0.000000 8.155000 17.332001 2.735500 # Ob LIG
444 19 9 0.000000 21.164000 39.862999 2.735500 # Ob LIG
445 19 8 0.000000 8.296000 0.791000 27.128979 # Oa LIG
446 19 8 0.000000 21.304001 23.322001 27.128979 # Oa LIG
447 19 8 0.000000 8.295000 15.812000 24.851978 # Oa LIG
448 19 8 0.000000 21.304001 38.342999 24.851978 # Oa LIG
449 19 8 0.000000 9.546000 14.952000 27.128979 # Oa LIG
450 19 8 0.000000 22.554001 37.484001 27.128979 # Oa LIG
451 19 5 0.000000 25.868000 7.878000 0.186500 # Cd LIG
452 19 5 0.000000 12.860000 30.409000 0.186500 # Cd LIG
453 19 3 0.000000 24.879999 7.373000 25.356979 # Cb LIG
454 19 3 0.000000 11.871000 29.905001 25.356979 # Cb LIG
455 19 3 0.000000 24.879999 22.393999 2.594500 # Cb LIG
456 19 3 0.000000 11.871000 44.925999 2.594500 # Cb LIG
457 19 4 0.000000 24.708000 7.749000 26.729979 # Cc LIG
458 19 4 0.000000 11.699000 30.280001 26.729979 # Cc LIG
459 19 2 0.000000 23.745001 22.209999 1.651500 # Ca LIG
460 19 2 0.000000 10.736000 44.741001 1.651500 # Ca LIG
461 19 2 0.000000 23.745001 7.188000 24.414980 # Ca LIG
462 19 2 0.000000 10.736000 29.719999 24.414980 # Ca LIG
463 19 2 0.000000 20.927999 9.459000 1.651500 # Ca LIG
464 19 2 0.000000 7.919000 31.990999 1.651500 # Ca LIG
465 19 4 0.000000 20.374001 19.791000 26.729979 # Cc LIG
466 19 4 0.000000 7.365000 42.323002 26.729979 # Cc LIG
467 19 2 0.000000 20.370001 20.905001 24.414980 # Ca LIG
468 19 2 0.000000 7.361000 43.437000 24.414980 # Ca LIG
469 19 3 0.000000 20.201000 10.350000 2.594500 # Cb LIG
470 19 3 0.000000 7.192000 32.881001 2.594500 # Cb LIG
471 19 3 0.000000 19.962999 19.830000 25.356979 # Cb LIG
472 19 3 0.000000 6.954000 42.362000 25.356979 # Cb LIG
473 19 5 0.000000 19.905001 18.722000 0.186500 # Cd LIG
474 19 5 0.000000 6.897000 41.252998 0.186500 # Cd LIG
475 19 5 0.000000 19.757000 11.578000 2.089500 # Cd LIG
476 19 5 0.000000 6.749000 34.110001 2.089500 # Cd LIG
477 19 5 0.000000 19.120001 18.830999 24.851978 # Cd LIG
478 19 5 0.000000 6.112000 41.362999 24.851978 # Cd LIG
479 19 3 0.000000 19.063000 17.723000 26.996979 # Cb LIG
480 19 3 0.000000 6.055000 40.254002 26.996979 # Cb LIG
481 19 4 0.000000 19.065001 12.519000 2.861500 # Cc LIG
482 19 4 0.000000 6.056000 35.050999 2.861500 # Cc LIG
483 19 2 0.000000 18.656000 16.646999 0.624500 # Ca LIG
484 19 2 0.000000 5.647000 39.179001 0.624500 # Ca LIG
485 19 4 0.000000 18.652000 17.761000 25.624979 # Cc LIG
486 19 4 0.000000 5.643000 40.292999 25.624979 # Cc LIG
487 19 5 0.000000 0.149000 7.143000 24.851978 # Cd LIG
488 19 5 0.000000 13.157000 29.674999 24.851978 # Cd LIG
489 19 5 0.000000 0.149000 22.164000 2.089500 # Cd LIG
490 19 5 0.000000 13.157000 44.695999 2.089500 # Cd LIG
491 19 3 0.000000 1.137000 7.648000 26.996979 # Cb LIG
492 19 3 0.000000 14.146000 30.179001 26.996979 # Cb LIG
493 19 4 0.000000 1.309000 22.292999 2.861500 # Cc LIG
494 19 4 0.000000 14.318000 44.825001 2.861500 # Cc LIG
495 19 4 0.000000 1.309000 7.272000 25.624979 # Cc LIG
496 19 4 0.000000 14.318000 29.804001 25.624979 # Cc LIG
497 19 2 0.000000 10.736000 14.699000 26.690979 # Ca LIG
498 19 2 0.000000 23.745001 37.230000 26.690979 # Ca LIG
499 19 4 0.000000 11.699000 15.259000 1.690500 # Cc LIG
500 19 4 0.000000 24.708000 37.791000 1.690500 # Cc LIG
501 19 4 0.000000 11.699000 0.238000 24.453979 # Cc LIG
502 19 4 0.000000 24.708000 22.770000 24.453979 # Cc LIG
503 19 3 0.000000 11.871000 14.884000 0.318500 # Cb LIG
504 19 3 0.000000 24.879999 37.415001 0.318500 # Cb LIG
505 19 5 0.000000 12.860000 0.367000 25.225979 # Cd LIG
506 19 5 0.000000 25.868999 22.899000 25.225979 # Cd LIG
507 19 5 0.000000 12.860000 15.388000 2.463500 # Cd LIG
508 19 5 0.000000 25.868000 37.919998 2.463500 # Cd LIG
509 19 5 0.000000 13.157000 14.654000 27.128979 # Cd LIG
510 19 5 0.000000 0.149000 37.185001 27.128979 # Cd LIG
511 19 3 0.000000 14.146000 15.158000 1.957500 # Cb LIG
512 19 3 0.000000 1.137000 37.689999 1.957500 # Cb LIG
513 19 3 0.000000 14.146000 0.137000 24.720980 # Cb LIG
514 19 3 0.000000 1.137000 22.669001 24.720980 # Cb LIG
515 19 4 0.000000 14.318000 14.783000 0.585500 # Cc LIG
516 19 4 0.000000 1.309000 37.313999 0.585500 # Cc LIG
517 19 2 0.000000 15.281000 0.322000 25.663979 # Ca LIG
518 19 2 0.000000 2.272000 22.854000 25.663979 # Ca LIG
519 19 2 0.000000 15.281000 15.343000 2.900500 # Ca LIG
520 19 2 0.000000 2.272000 37.875000 2.900500 # Ca LIG
521 19 2 0.000000 18.098000 13.072000 25.662979 # Ca LIG
522 19 2 0.000000 5.089000 35.604000 25.662979 # Ca LIG
523 19 4 0.000000 18.652000 2.740000 0.585500 # Cc LIG
524 19 4 0.000000 5.643000 25.271999 0.585500 # Cc LIG