LAMMPS data file. CGCMM style. atom_style full generated by VMD/TopoTools v1.5 on Mon May 14 08:39:20 PDT 2018
 2594 atoms
 0 bonds
 0 angles
 0 dihedrals
 0 impropers
 10 atom types
 0 bond types
 0 angle types
 0 dihedral types
 0 improper types
 0.451838 52.642840  xlo xhi
 0.325101 45.523500  ylo yhi
 -0.407500 27.119741  zlo zhi

# Pair Coeffs
#
# 1  CH4
# 2  Ca
# 3  Cb
# 4  Cc
# 5  Cd
# 6  H
# 7  Oa
# 8  Ob
# 9  Oc
# 10  Zn

 Masses

 1 16.040001 # CH4
 2 12.011000 # Ca
 3 12.011000 # Cb
 4 12.011000 # Cc
 5 12.011000 # Cd
 6 1.008000 # H
 7 15.999000 # Oa
 8 15.999000 # Ob
 9 15.999000 # Oc
 10 65.379997 # Zn

 Atoms

1 1 1 0.000000 52.190678 45.197601 0.000000 # CH4 
2 2 1 0.000000 52.190678 22.599600 0.000000 # CH4 
3 3 10 0.000000 5.331000 7.994000 21.569241 # Zn LIG
4 3 10 0.000000 18.378000 30.594000 21.569241 # Zn LIG
5 3 10 0.000000 31.426001 7.994000 21.569241 # Zn LIG
6 3 10 0.000000 44.473999 30.594000 21.569241 # Zn LIG
7 3 2 0.000000 5.724000 9.170000 18.988241 # Ca LIG
8 3 2 0.000000 18.771999 31.768999 18.988241 # Ca LIG
9 3 2 0.000000 31.819000 9.170000 18.988241 # Ca LIG
10 3 2 0.000000 44.867001 31.768999 18.988241 # Ca LIG
11 3 3 0.000000 6.104000 10.244000 18.040241 # Cb LIG
12 3 3 0.000000 19.150999 32.842999 18.040241 # Cb LIG
13 3 3 0.000000 32.199001 10.244000 18.040241 # Cb LIG
14 3 3 0.000000 45.247002 32.842999 18.040241 # Cb LIG
15 3 5 0.000000 6.937000 11.262000 18.520241 # Cd LIG
16 3 5 0.000000 19.983999 33.861000 18.520241 # Cd LIG
17 3 5 0.000000 33.032001 11.262000 18.520241 # Cd LIG
18 3 5 0.000000 46.080002 33.861000 18.520241 # Cd LIG
19 3 6 0.000000 7.258000 11.221000 19.558241 # H LIG
20 3 6 0.000000 20.306000 33.820000 19.558241 # H LIG
21 3 6 0.000000 33.353001 11.221000 19.558241 # H LIG
22 3 6 0.000000 46.401001 33.820000 19.558241 # H LIG
23 3 8 0.000000 6.191000 9.168000 20.176241 # Ob LIG
24 3 8 0.000000 19.238001 31.767000 20.176241 # Ob LIG
25 3 8 0.000000 32.285999 9.168000 20.176241 # Ob LIG
26 3 8 0.000000 45.334000 31.767000 20.176241 # Ob LIG
27 3 7 0.000000 4.915000 8.263000 18.567242 # Oa LIG
28 3 7 0.000000 17.962999 30.862000 18.567242 # Oa LIG
29 3 7 0.000000 31.010000 8.263000 18.567242 # Oa LIG
30 3 7 0.000000 44.057999 30.862000 18.567242 # Oa LIG
31 3 9 0.000000 8.191000 13.251000 18.306240 # Oc LIG
32 3 9 0.000000 21.238001 35.849998 18.306240 # Oc LIG
33 3 9 0.000000 34.285999 13.251000 18.306240 # Oc LIG
34 3 9 0.000000 47.334000 35.849998 18.306240 # Oc LIG
35 3 10 0.000000 4.258000 6.452000 19.275242 # Zn LIG
36 3 10 0.000000 17.306000 29.052000 19.275242 # Zn LIG
37 3 10 0.000000 30.353001 6.452000 19.275242 # Zn LIG
38 3 10 0.000000 43.401001 29.052000 19.275242 # Zn LIG
39 3 10 0.000000 3.459000 8.152000 23.863241 # Zn LIG
40 3 10 0.000000 16.507000 30.750999 23.863241 # Zn LIG
41 3 10 0.000000 29.554001 8.152000 23.863241 # Zn LIG
42 3 10 0.000000 42.602001 30.750999 23.863241 # Zn LIG
43 3 10 0.000000 7.717000 14.605000 19.721241 # Zn LIG
44 3 10 0.000000 20.764999 37.203999 19.721241 # Zn LIG
45 3 10 0.000000 33.812000 14.605000 19.721241 # Zn LIG
46 3 10 0.000000 46.860001 37.203999 19.721241 # Zn LIG
47 3 7 0.000000 4.698000 6.678000 23.155241 # Oa LIG
48 3 7 0.000000 17.746000 29.277000 23.155241 # Oa LIG
49 3 7 0.000000 30.794001 6.678000 23.155241 # Oa LIG
50 3 7 0.000000 43.841000 29.277000 23.155241 # Oa LIG
51 3 7 0.000000 3.434000 7.658000 20.861240 # Oa LIG
52 3 7 0.000000 16.482000 30.257000 20.861240 # Oa LIG
53 3 7 0.000000 29.530001 7.658000 20.861240 # Oa LIG
54 3 7 0.000000 42.577000 30.257000 20.861240 # Oa LIG
55 3 9 0.000000 4.857000 9.348000 22.984241 # Oc LIG
56 3 9 0.000000 17.905001 31.947001 22.984241 # Oc LIG
57 3 9 0.000000 30.952000 9.348000 22.984241 # Oc LIG
58 3 9 0.000000 44.000000 31.947001 22.984241 # Oc LIG
59 3 9 0.000000 5.667000 6.186000 20.690241 # Oc LIG
60 3 9 0.000000 18.715000 28.785000 20.690241 # Oc LIG
61 3 9 0.000000 31.763000 6.186000 20.690241 # Oc LIG
62 3 9 0.000000 44.810001 28.785000 20.690241 # Oc LIG
63 3 4 0.000000 5.670000 10.272000 23.559240 # Cc LIG
64 3 4 0.000000 18.718000 32.870998 23.559240 # Cc LIG
65 3 4 0.000000 31.764999 10.272000 23.559240 # Cc LIG
66 3 4 0.000000 44.813000 32.870998 23.559240 # Cc LIG
67 3 2 0.000000 7.324000 13.429000 22.302240 # Ca LIG
68 3 2 0.000000 20.371000 36.028000 22.302240 # Ca LIG
69 3 2 0.000000 33.418999 13.429000 22.302240 # Ca LIG
70 3 2 0.000000 46.466999 36.028000 22.302240 # Ca LIG
71 3 3 0.000000 6.944000 12.355000 23.250240 # Cb LIG
72 3 3 0.000000 19.992001 34.953999 23.250240 # Cb LIG
73 3 3 0.000000 33.039001 12.355000 23.250240 # Cb LIG
74 3 3 0.000000 46.087002 34.953999 23.250240 # Cb LIG
75 3 4 0.000000 7.378000 12.327000 17.730240 # Cc LIG
76 3 4 0.000000 20.424999 34.925999 17.730240 # Cc LIG
77 3 4 0.000000 33.473000 12.327000 17.730240 # Cc LIG
78 3 4 0.000000 46.521000 34.925999 17.730240 # Cc LIG
79 3 5 0.000000 6.111000 11.337000 22.770241 # Cd LIG
80 3 5 0.000000 19.159000 33.936001 22.770241 # Cd LIG
81 3 5 0.000000 32.206001 11.337000 22.770241 # Cd LIG
82 3 5 0.000000 45.254002 33.936001 22.770241 # Cd LIG
83 3 6 0.000000 5.790000 11.379000 21.732241 # H LIG
84 3 6 0.000000 18.837000 33.978001 21.732241 # H LIG
85 3 6 0.000000 31.885000 11.379000 21.732241 # H LIG
86 3 6 0.000000 44.932999 33.978001 21.732241 # H LIG
87 3 8 0.000000 6.857000 13.431000 21.113241 # Ob LIG
88 3 8 0.000000 19.905001 36.029999 21.113241 # Ob LIG
89 3 8 0.000000 32.952000 13.431000 21.113241 # Ob LIG
90 3 8 0.000000 46.000000 36.029999 21.113241 # Ob LIG
91 3 7 0.000000 8.133000 14.336000 22.723240 # Oa LIG
92 3 7 0.000000 21.180000 36.936001 22.723240 # Oa LIG
93 3 7 0.000000 34.228001 14.336000 22.723240 # Oa LIG
94 3 7 0.000000 47.276001 36.936001 22.723240 # Oa LIG
95 3 10 0.000000 8.790000 16.146999 22.015240 # Zn LIG
96 3 10 0.000000 21.837000 38.745998 22.015240 # Zn LIG
97 3 10 0.000000 34.884998 16.146999 22.015240 # Zn LIG
98 3 10 0.000000 47.932999 38.745998 22.015240 # Zn LIG
99 3 10 0.000000 9.589000 14.447000 17.427240 # Zn LIG
100 3 10 0.000000 22.636000 37.046001 17.427240 # Zn LIG
101 3 10 0.000000 35.683998 14.447000 17.427240 # Zn LIG
102 3 10 0.000000 48.731998 37.046001 17.427240 # Zn LIG
103 3 7 0.000000 8.349000 15.921000 18.135241 # Oa LIG
104 3 7 0.000000 21.396999 38.520000 18.135241 # Oa LIG
105 3 7 0.000000 34.445000 15.921000 18.135241 # Oa LIG
106 3 7 0.000000 47.492001 38.520000 18.135241 # Oa LIG
107 3 7 0.000000 9.613000 14.941000 20.429241 # Oa LIG
108 3 7 0.000000 22.660999 37.540001 20.429241 # Oa LIG
109 3 7 0.000000 35.709000 14.941000 20.429241 # Oa LIG
110 3 7 0.000000 48.756001 37.540001 20.429241 # Oa LIG
111 3 9 0.000000 7.380000 16.413000 20.600241 # Oc LIG
112 3 9 0.000000 20.427999 39.013000 20.600241 # Oc LIG
113 3 9 0.000000 33.476002 16.413000 20.600241 # Oc LIG
114 3 9 0.000000 46.522999 39.013000 20.600241 # Oc LIG
115 3 10 0.000000 8.790000 31.212999 19.721241 # Zn LIG
116 3 10 0.000000 21.837000 8.614000 19.721241 # Zn LIG
117 3 10 0.000000 34.884998 31.212999 19.721241 # Zn LIG
118 3 10 0.000000 47.932999 8.614000 19.721241 # Zn LIG
119 3 10 0.000000 9.589000 29.513000 22.015240 # Zn LIG
120 3 10 0.000000 22.636000 6.914000 22.015240 # Zn LIG
121 3 10 0.000000 35.683998 29.513000 22.015240 # Zn LIG
122 3 10 0.000000 48.731998 6.914000 22.015240 # Zn LIG
123 3 7 0.000000 9.613000 30.007000 18.135241 # Oa LIG
124 3 7 0.000000 22.660999 7.408000 18.135241 # Oa LIG
125 3 7 0.000000 35.709000 30.007000 18.135241 # Oa LIG
126 3 7 0.000000 48.756001 7.408000 18.135241 # Oa LIG
127 3 7 0.000000 8.349000 30.987000 22.723240 # Oa LIG
128 3 7 0.000000 21.396999 8.388000 22.723240 # Oa LIG
129 3 7 0.000000 34.445000 30.987000 22.723240 # Oa LIG
130 3 7 0.000000 47.492001 8.388000 22.723240 # Oa LIG
131 3 7 0.000000 4.698000 21.743999 20.861240 # Oa LIG
132 3 7 0.000000 17.746000 44.342999 20.861240 # Oa LIG
133 3 7 0.000000 30.794001 21.743999 20.861240 # Oa LIG
134 3 7 0.000000 43.841000 44.342999 20.861240 # Oa LIG
135 3 9 0.000000 5.667000 21.252001 18.396240 # Oc LIG
136 3 9 0.000000 18.715000 43.851002 18.396240 # Oc LIG
137 3 9 0.000000 31.763000 21.252001 18.396240 # Oc LIG
138 3 9 0.000000 44.810001 43.851002 18.396240 # Oc LIG
139 3 10 0.000000 4.258000 21.518000 23.863241 # Zn LIG
140 3 10 0.000000 17.306000 44.118000 23.863241 # Zn LIG
141 3 10 0.000000 30.353001 21.518000 23.863241 # Zn LIG
142 3 10 0.000000 43.401001 44.118000 23.863241 # Zn LIG
143 3 10 0.000000 8.790000 1.081000 17.427240 # Zn LIG
144 3 10 0.000000 21.837000 23.680000 17.427240 # Zn LIG
145 3 10 0.000000 34.884998 1.081000 17.427240 # Zn LIG
146 3 10 0.000000 47.932999 23.680000 17.427240 # Zn LIG
147 3 7 0.000000 8.349000 0.855000 20.429241 # Oa LIG
148 3 7 0.000000 21.396999 23.454000 20.429241 # Oa LIG
149 3 7 0.000000 34.445000 0.855000 20.429241 # Oa LIG
150 3 7 0.000000 47.492001 23.454000 20.429241 # Oa LIG
151 3 9 0.000000 7.380000 1.347000 22.894241 # Oc LIG
152 3 9 0.000000 20.427999 23.947001 22.894241 # Oc LIG
153 3 9 0.000000 33.476002 1.347000 22.894241 # Oc LIG
154 3 9 0.000000 46.522999 23.947001 22.894241 # Oc LIG
155 3 9 0.000000 4.857000 39.480000 18.396240 # Oc LIG
156 3 9 0.000000 17.905001 16.881001 18.396240 # Oc LIG
157 3 9 0.000000 30.952999 39.480000 18.396240 # Oc LIG
158 3 9 0.000000 44.000000 16.881001 18.396240 # Oc LIG
159 3 10 0.000000 5.331000 38.126999 23.863241 # Zn LIG
160 3 10 0.000000 18.378000 15.527000 23.863241 # Zn LIG
161 3 10 0.000000 31.426001 38.126999 23.863241 # Zn LIG
162 3 10 0.000000 44.473999 15.527000 23.863241 # Zn LIG
163 3 2 0.000000 5.724000 39.301998 21.282242 # Ca LIG
164 3 2 0.000000 18.771999 16.702999 21.282242 # Ca LIG
165 3 2 0.000000 31.819000 39.301998 21.282242 # Ca LIG
166 3 2 0.000000 44.867001 16.702999 21.282242 # Ca LIG
167 3 3 0.000000 6.104000 40.375999 20.334240 # Cb LIG
168 3 3 0.000000 19.150999 17.777000 20.334240 # Cb LIG
169 3 3 0.000000 32.199001 40.375999 20.334240 # Cb LIG
170 3 3 0.000000 45.247002 17.777000 20.334240 # Cb LIG
171 3 4 0.000000 5.670000 40.403999 18.972240 # Cc LIG
172 3 4 0.000000 18.718000 17.805000 18.972240 # Cc LIG
173 3 4 0.000000 31.764999 40.403999 18.972240 # Cc LIG
174 3 4 0.000000 44.813000 17.805000 18.972240 # Cc LIG
175 3 5 0.000000 6.937000 41.394001 20.814240 # Cd LIG
176 3 5 0.000000 19.983999 18.795000 20.814240 # Cd LIG
177 3 5 0.000000 33.032001 41.394001 20.814240 # Cd LIG
178 3 5 0.000000 46.080002 18.795000 20.814240 # Cd LIG
179 3 6 0.000000 7.258000 41.353001 21.852242 # H LIG
180 3 6 0.000000 20.306000 18.754000 21.852242 # H LIG
181 3 6 0.000000 33.353001 41.353001 21.852242 # H LIG
182 3 6 0.000000 46.401001 18.754000 21.852242 # H LIG
183 3 8 0.000000 6.191000 39.299999 22.470242 # Ob LIG
184 3 8 0.000000 19.238001 16.701000 22.470242 # Ob LIG
185 3 8 0.000000 32.285999 39.299999 22.470242 # Ob LIG
186 3 8 0.000000 45.334000 16.701000 22.470242 # Ob LIG
187 3 7 0.000000 4.915000 38.395000 20.861240 # Oa LIG
188 3 7 0.000000 17.962999 15.796000 20.861240 # Oa LIG
189 3 7 0.000000 31.010000 38.395000 20.861240 # Oa LIG
190 3 7 0.000000 44.057999 15.796000 20.861240 # Oa LIG
191 3 3 0.000000 6.944000 42.487000 18.662241 # Cb LIG
192 3 3 0.000000 19.992001 19.888000 18.662241 # Cb LIG
193 3 3 0.000000 33.039001 42.487000 18.662241 # Cb LIG
194 3 3 0.000000 46.087002 19.888000 18.662241 # Cb LIG
195 3 4 0.000000 7.378000 42.459000 20.024240 # Cc LIG
196 3 4 0.000000 20.424999 19.860001 20.024240 # Cc LIG
197 3 4 0.000000 33.473000 42.459000 20.024240 # Cc LIG
198 3 4 0.000000 46.521000 19.860001 20.024240 # Cc LIG
199 3 5 0.000000 6.111000 41.469002 18.182240 # Cd LIG
200 3 5 0.000000 19.159000 18.870001 18.182240 # Cd LIG
201 3 5 0.000000 32.206001 41.469002 18.182240 # Cd LIG
202 3 5 0.000000 45.254002 18.870001 18.182240 # Cd LIG
203 3 7 0.000000 8.133000 44.469002 18.135241 # Oa LIG
204 3 7 0.000000 21.180000 21.868999 18.135241 # Oa LIG
205 3 7 0.000000 34.228001 44.469002 18.135241 # Oa LIG
206 3 7 0.000000 47.276001 21.868999 18.135241 # Oa LIG
207 3 9 0.000000 8.191000 43.382999 20.600241 # Oc LIG
208 3 9 0.000000 21.238001 20.784000 20.600241 # Oc LIG
209 3 9 0.000000 34.285999 43.382999 20.600241 # Oc LIG
210 3 9 0.000000 47.334000 20.784000 20.600241 # Oc LIG
211 3 10 0.000000 7.717000 44.737000 22.015240 # Zn LIG
212 3 10 0.000000 20.764999 22.138000 22.015240 # Zn LIG
213 3 10 0.000000 33.812000 44.737000 22.015240 # Zn LIG
214 3 10 0.000000 46.860001 22.138000 22.015240 # Zn LIG
215 3 10 0.000000 9.589000 44.578999 19.721241 # Zn LIG
216 3 10 0.000000 22.636000 21.980000 19.721241 # Zn LIG
217 3 10 0.000000 35.683998 44.578999 19.721241 # Zn LIG
218 3 10 0.000000 48.731998 21.980000 19.721241 # Zn LIG
219 3 9 0.000000 5.667000 36.318001 22.984241 # Oc LIG
220 3 9 0.000000 18.715000 13.719000 22.984241 # Oc LIG
221 3 9 0.000000 31.763000 36.318001 22.984241 # Oc LIG
222 3 9 0.000000 44.810001 13.719000 22.984241 # Oc LIG
223 3 2 0.000000 7.324000 43.561001 17.714241 # Ca LIG
224 3 2 0.000000 20.371000 20.962000 17.714241 # Ca LIG
225 3 2 0.000000 33.418999 43.561001 17.714241 # Ca LIG
226 3 2 0.000000 46.466999 20.962000 17.714241 # Ca LIG
227 3 8 0.000000 6.857000 43.563999 23.407242 # Ob LIG
228 3 8 0.000000 19.905001 20.964001 23.407242 # Ob LIG
229 3 8 0.000000 32.952000 43.563999 23.407242 # Ob LIG
230 3 8 0.000000 46.000000 20.964001 23.407242 # Ob LIG
231 3 7 0.000000 9.613000 45.073002 22.723240 # Oa LIG
232 3 7 0.000000 22.660999 22.474001 22.723240 # Oa LIG
233 3 7 0.000000 35.709000 45.073002 22.723240 # Oa LIG
234 3 7 0.000000 48.756001 22.474001 22.723240 # Oa LIG
235 3 10 0.000000 3.459000 38.285000 19.275242 # Zn LIG
236 3 10 0.000000 16.507000 15.685000 19.275242 # Zn LIG
237 3 10 0.000000 29.554001 38.285000 19.275242 # Zn LIG
238 3 10 0.000000 42.602001 15.685000 19.275242 # Zn LIG
239 3 7 0.000000 4.698000 36.810001 18.567242 # Oa LIG
240 3 7 0.000000 17.746000 14.211000 18.567242 # Oa LIG
241 3 7 0.000000 30.794001 36.810001 18.567242 # Oa LIG
242 3 7 0.000000 43.841000 14.211000 18.567242 # Oa LIG
243 3 10 0.000000 4.258000 36.584999 21.569241 # Zn LIG
244 3 10 0.000000 17.306000 13.985000 21.569241 # Zn LIG
245 3 10 0.000000 30.353001 36.584999 21.569241 # Zn LIG
246 3 10 0.000000 43.401001 13.985000 21.569241 # Zn LIG
247 3 7 0.000000 3.434000 37.790001 23.155241 # Oa LIG
248 3 7 0.000000 16.482000 15.191000 23.155241 # Oa LIG
249 3 7 0.000000 29.530001 37.790001 23.155241 # Oa LIG
250 3 7 0.000000 42.577000 15.191000 23.155241 # Oa LIG
251 3 9 0.000000 2.523000 22.131001 22.984241 # Oc LIG
252 3 9 0.000000 15.571000 44.730999 22.984241 # Oc LIG
253 3 9 0.000000 28.618999 22.131001 22.984241 # Oc LIG
254 3 9 0.000000 41.666000 44.730999 22.984241 # Oc LIG
255 3 4 0.000000 1.317000 22.372999 23.559240 # Cc LIG
256 3 4 0.000000 14.364000 44.972000 23.559240 # Cc LIG
257 3 4 0.000000 27.412001 22.372999 23.559240 # Cc LIG
258 3 4 0.000000 40.459999 44.972000 23.559240 # Cc LIG
259 3 2 0.000000 10.803000 44.826000 22.302240 # Ca LIG
260 3 2 0.000000 23.851000 22.226999 22.302240 # Ca LIG
261 3 2 0.000000 36.898998 44.826000 22.302240 # Ca LIG
262 3 2 0.000000 49.945999 22.226999 22.302240 # Ca LIG
263 3 3 0.000000 11.923000 45.034000 23.250240 # Cb LIG
264 3 3 0.000000 24.971001 22.434999 23.250240 # Cb LIG
265 3 3 0.000000 38.019001 45.034000 23.250240 # Cb LIG
266 3 3 0.000000 51.066002 22.434999 23.250240 # Cb LIG
267 3 5 0.000000 0.174000 22.223000 22.770241 # Cd LIG
268 3 5 0.000000 13.222000 44.821999 22.770241 # Cd LIG
269 3 5 0.000000 26.268999 22.223000 22.770241 # Cd LIG
270 3 5 0.000000 39.317001 44.821999 22.770241 # Cd LIG
271 3 6 0.000000 0.299000 21.924000 21.732241 # H LIG
272 3 6 0.000000 13.346000 44.522999 21.732241 # H LIG
273 3 6 0.000000 26.393999 21.924000 21.732241 # H LIG
274 3 6 0.000000 39.442001 44.522999 21.732241 # H LIG
275 3 8 0.000000 11.035000 44.421001 21.113241 # Ob LIG
276 3 8 0.000000 24.083000 21.822001 21.113241 # Ob LIG
277 3 8 0.000000 37.130001 44.421001 21.113241 # Ob LIG
278 3 8 0.000000 50.178001 21.822001 21.113241 # Ob LIG
279 3 4 0.000000 6.061000 35.152000 23.559240 # Cc LIG
280 3 4 0.000000 19.108999 12.553000 23.559240 # Cc LIG
281 3 4 0.000000 32.155998 35.152000 23.559240 # Cc LIG
282 3 4 0.000000 45.203999 12.553000 23.559240 # Cc LIG
283 3 2 0.000000 7.968000 32.140999 22.302240 # Ca LIG
284 3 2 0.000000 21.016001 9.542000 22.302240 # Ca LIG
285 3 2 0.000000 34.063999 32.140999 22.302240 # Ca LIG
286 3 2 0.000000 47.111000 9.542000 22.302240 # Ca LIG
287 3 3 0.000000 7.228000 33.007000 23.250240 # Cb LIG
288 3 3 0.000000 20.275999 10.408000 23.250240 # Cb LIG
289 3 3 0.000000 33.323002 33.007000 23.250240 # Cb LIG
290 3 3 0.000000 46.370998 10.408000 23.250240 # Cb LIG
291 3 5 0.000000 6.763000 34.237000 22.770241 # Cd LIG
292 3 5 0.000000 19.809999 11.638000 22.770241 # Cd LIG
293 3 5 0.000000 32.858002 34.237000 22.770241 # Cd LIG
294 3 5 0.000000 45.905998 11.638000 22.770241 # Cd LIG
295 3 6 0.000000 6.959000 34.494999 21.732241 # H LIG
296 3 6 0.000000 20.007000 11.896000 21.732241 # H LIG
297 3 6 0.000000 33.055000 34.494999 21.732241 # H LIG
298 3 6 0.000000 46.102001 11.896000 21.732241 # H LIG
299 3 8 0.000000 8.203000 32.543999 21.113241 # Ob LIG
300 3 8 0.000000 21.250999 9.945000 21.113241 # Ob LIG
301 3 8 0.000000 34.299000 32.543999 21.113241 # Ob LIG
302 3 8 0.000000 47.346001 9.945000 21.113241 # Ob LIG
303 3 9 0.000000 10.524000 30.600000 20.600241 # Oc LIG
304 3 9 0.000000 23.572001 8.001000 20.600241 # Oc LIG
305 3 9 0.000000 36.619999 30.600000 20.600241 # Oc LIG
306 3 9 0.000000 49.667000 8.001000 20.600241 # Oc LIG
307 3 2 0.000000 5.079000 35.655998 18.988241 # Ca LIG
308 3 2 0.000000 18.127001 13.057000 18.988241 # Ca LIG
309 3 2 0.000000 31.174999 35.655998 18.988241 # Ca LIG
310 3 2 0.000000 44.222000 13.057000 18.988241 # Ca LIG
311 3 3 0.000000 5.820000 34.790001 18.040241 # Cb LIG
312 3 3 0.000000 18.867001 12.191000 18.040241 # Cb LIG
313 3 3 0.000000 31.915001 34.790001 18.040241 # Cb LIG
314 3 3 0.000000 44.963001 12.191000 18.040241 # Cb LIG
315 3 5 0.000000 6.285000 33.560001 18.520241 # Cd LIG
316 3 5 0.000000 19.333000 10.961000 18.520241 # Cd LIG
317 3 5 0.000000 32.380001 33.560001 18.520241 # Cd LIG
318 3 5 0.000000 45.428001 10.961000 18.520241 # Cd LIG
319 3 6 0.000000 6.088000 33.301998 19.558241 # H LIG
320 3 6 0.000000 19.136000 10.703000 19.558241 # H LIG
321 3 6 0.000000 32.183998 33.301998 19.558241 # H LIG
322 3 6 0.000000 45.230999 10.703000 19.558241 # H LIG
323 3 8 0.000000 4.844000 35.252998 20.176241 # Ob LIG
324 3 8 0.000000 17.892000 12.654000 20.176241 # Ob LIG
325 3 8 0.000000 30.940001 35.252998 20.176241 # Ob LIG
326 3 8 0.000000 43.987000 12.654000 20.176241 # Ob LIG
327 3 9 0.000000 2.523000 37.198002 20.690241 # Oc LIG
328 3 9 0.000000 15.571000 14.598000 20.690241 # Oc LIG
329 3 9 0.000000 28.618999 37.198002 20.690241 # Oc LIG
330 3 9 0.000000 41.666000 14.598000 20.690241 # Oc LIG
331 3 8 0.000000 2.013000 38.443001 17.882240 # Ob LIG
332 3 8 0.000000 15.060000 15.843000 17.882240 # Ob LIG
333 3 8 0.000000 28.108000 38.443001 17.882240 # Ob LIG
334 3 8 0.000000 41.155998 15.843000 17.882240 # Ob LIG
335 3 2 0.000000 2.244000 38.036999 23.576241 # Ca LIG
336 3 2 0.000000 15.292000 15.438000 23.576241 # Ca LIG
337 3 2 0.000000 28.340000 38.036999 23.576241 # Ca LIG
338 3 2 0.000000 41.387001 15.438000 23.576241 # Ca LIG
339 3 3 0.000000 1.124000 37.828999 22.628241 # Cb LIG
340 3 3 0.000000 14.172000 15.230000 22.628241 # Cb LIG
341 3 3 0.000000 27.219999 37.828999 22.628241 # Cb LIG
342 3 3 0.000000 40.266998 15.230000 22.628241 # Cb LIG
343 3 4 0.000000 1.317000 37.438999 21.265240 # Cc LIG
344 3 4 0.000000 14.364000 14.840000 21.265240 # Cc LIG
345 3 4 0.000000 27.412001 37.438999 21.265240 # Cc LIG
346 3 4 0.000000 40.459999 14.840000 21.265240 # Cc LIG
347 3 5 0.000000 12.874000 15.442000 23.108240 # Cd LIG
348 3 5 0.000000 25.921000 38.041000 23.108240 # Cd LIG
349 3 5 0.000000 38.969002 15.442000 23.108240 # Cd LIG
350 3 5 0.000000 52.016998 38.041000 23.108240 # Cd LIG
351 3 6 0.000000 12.749000 15.741000 17.264240 # H LIG
352 3 6 0.000000 25.797001 38.341000 17.264240 # H LIG
353 3 6 0.000000 38.844002 15.741000 17.264240 # H LIG
354 3 6 0.000000 51.891998 38.341000 17.264240 # H LIG
355 3 2 0.000000 10.803000 14.694000 20.008240 # Ca LIG
356 3 2 0.000000 23.851000 37.292999 20.008240 # Ca LIG
357 3 2 0.000000 36.898998 14.694000 20.008240 # Ca LIG
358 3 2 0.000000 49.945999 37.292999 20.008240 # Ca LIG
359 3 3 0.000000 11.923000 14.902000 20.956242 # Cb LIG
360 3 3 0.000000 24.971001 37.500999 20.956242 # Cb LIG
361 3 3 0.000000 38.019001 14.902000 20.956242 # Cb LIG
362 3 3 0.000000 51.066002 37.500999 20.956242 # Cb LIG
363 3 4 0.000000 11.731000 15.292000 22.318241 # Cc LIG
364 3 4 0.000000 24.778000 37.890999 22.318241 # Cc LIG
365 3 4 0.000000 37.826000 15.292000 22.318241 # Cc LIG
366 3 4 0.000000 50.874001 37.890999 22.318241 # Cc LIG
367 3 5 0.000000 0.174000 37.289001 20.476242 # Cd LIG
368 3 5 0.000000 13.222000 14.690000 20.476242 # Cd LIG
369 3 5 0.000000 26.268999 37.289001 20.476242 # Cd LIG
370 3 5 0.000000 39.317001 14.690000 20.476242 # Cd LIG
371 3 6 0.000000 0.299000 36.990002 19.438240 # H LIG
372 3 6 0.000000 13.346000 14.391000 19.438240 # H LIG
373 3 6 0.000000 26.393999 36.990002 19.438240 # H LIG
374 3 6 0.000000 39.442001 14.391000 19.438240 # H LIG
375 3 8 0.000000 11.035000 14.289000 18.819241 # Ob LIG
376 3 8 0.000000 24.083000 36.888000 18.819241 # Ob LIG
377 3 8 0.000000 37.130001 14.289000 18.819241 # Ob LIG
378 3 8 0.000000 50.178001 36.888000 18.819241 # Ob LIG
379 3 9 0.000000 10.524000 15.534000 22.894241 # Oc LIG
380 3 9 0.000000 23.572001 38.132999 22.894241 # Oc LIG
381 3 9 0.000000 36.619999 15.534000 22.894241 # Oc LIG
382 3 9 0.000000 49.667000 38.132999 22.894241 # Oc LIG
383 3 8 0.000000 4.844000 5.121000 17.882240 # Ob LIG
384 3 8 0.000000 17.892000 27.719999 17.882240 # Ob LIG
385 3 8 0.000000 30.940001 5.121000 17.882240 # Ob LIG
386 3 8 0.000000 43.987000 27.719999 17.882240 # Ob LIG
387 3 9 0.000000 2.523000 7.065000 18.396240 # Oc LIG
388 3 9 0.000000 15.571000 29.664000 18.396240 # Oc LIG
389 3 9 0.000000 28.618999 7.065000 18.396240 # Oc LIG
390 3 9 0.000000 41.666000 29.664000 18.396240 # Oc LIG
391 3 2 0.000000 5.079000 5.524000 23.576241 # Ca LIG
392 3 2 0.000000 18.127001 28.122999 23.576241 # Ca LIG
393 3 2 0.000000 31.174999 5.524000 23.576241 # Ca LIG
394 3 2 0.000000 44.222000 28.122999 23.576241 # Ca LIG
395 3 3 0.000000 5.820000 4.658000 22.628241 # Cb LIG
396 3 3 0.000000 18.867001 27.257000 22.628241 # Cb LIG
397 3 3 0.000000 31.915001 4.658000 22.628241 # Cb LIG
398 3 3 0.000000 44.963001 27.257000 22.628241 # Cb LIG
399 3 4 0.000000 6.061000 5.020000 21.265240 # Cc LIG
400 3 4 0.000000 19.108999 27.618999 21.265240 # Cc LIG
401 3 4 0.000000 32.155998 5.020000 21.265240 # Cc LIG
402 3 4 0.000000 45.203999 27.618999 21.265240 # Cc LIG
403 3 5 0.000000 6.285000 3.428000 23.108240 # Cd LIG
404 3 5 0.000000 19.333000 26.027000 23.108240 # Cd LIG
405 3 5 0.000000 32.380001 3.428000 23.108240 # Cd LIG
406 3 5 0.000000 45.428001 26.027000 23.108240 # Cd LIG
407 3 6 0.000000 6.088000 3.170000 17.264240 # H LIG
408 3 6 0.000000 19.136000 25.768999 17.264240 # H LIG
409 3 6 0.000000 32.183998 3.170000 17.264240 # H LIG
410 3 6 0.000000 45.230999 25.768999 17.264240 # H LIG
411 3 2 0.000000 7.968000 2.009000 20.008240 # Ca LIG
412 3 2 0.000000 21.016001 24.608000 20.008240 # Ca LIG
413 3 2 0.000000 34.063999 2.009000 20.008240 # Ca LIG
414 3 2 0.000000 47.111000 24.608000 20.008240 # Ca LIG
415 3 3 0.000000 7.228000 2.875000 20.956242 # Cb LIG
416 3 3 0.000000 20.275999 25.474001 20.956242 # Cb LIG
417 3 3 0.000000 33.323002 2.875000 20.956242 # Cb LIG
418 3 3 0.000000 46.370998 25.474001 20.956242 # Cb LIG
419 3 4 0.000000 6.987000 2.513000 22.318241 # Cc LIG
420 3 4 0.000000 20.034000 25.112000 22.318241 # Cc LIG
421 3 4 0.000000 33.082001 2.513000 22.318241 # Cc LIG
422 3 4 0.000000 46.130001 25.112000 22.318241 # Cc LIG
423 3 5 0.000000 6.763000 4.105000 20.476242 # Cd LIG
424 3 5 0.000000 19.809999 26.704000 20.476242 # Cd LIG
425 3 5 0.000000 32.858002 4.105000 20.476242 # Cd LIG
426 3 5 0.000000 45.905998 26.704000 20.476242 # Cd LIG
427 3 6 0.000000 6.959000 4.363000 19.438240 # H LIG
428 3 6 0.000000 20.007000 26.962000 19.438240 # H LIG
429 3 6 0.000000 33.055000 4.363000 19.438240 # H LIG
430 3 6 0.000000 46.102001 26.962000 19.438240 # H LIG
431 3 8 0.000000 8.203000 2.412000 18.819241 # Ob LIG
432 3 8 0.000000 21.250999 25.011000 18.819241 # Ob LIG
433 3 8 0.000000 34.299000 2.412000 18.819241 # Ob LIG
434 3 8 0.000000 47.346001 25.011000 18.819241 # Ob LIG
435 3 2 0.000000 2.244000 7.905000 21.282242 # Ca LIG
436 3 2 0.000000 15.292000 30.504000 21.282242 # Ca LIG
437 3 2 0.000000 28.340000 7.905000 21.282242 # Ca LIG
438 3 2 0.000000 41.387001 30.504000 21.282242 # Ca LIG
439 3 3 0.000000 1.124000 7.697000 20.334240 # Cb LIG
440 3 3 0.000000 14.172000 30.296000 20.334240 # Cb LIG
441 3 3 0.000000 27.219999 7.697000 20.334240 # Cb LIG
442 3 3 0.000000 40.266998 30.296000 20.334240 # Cb LIG
443 3 4 0.000000 1.317000 7.307000 18.972240 # Cc LIG
444 3 4 0.000000 14.364000 29.906000 18.972240 # Cc LIG
445 3 4 0.000000 27.412001 7.307000 18.972240 # Cc LIG
446 3 4 0.000000 40.459999 29.906000 18.972240 # Cc LIG
447 3 5 0.000000 12.874000 30.507999 20.814240 # Cd LIG
448 3 5 0.000000 25.921000 7.909000 20.814240 # Cd LIG
449 3 5 0.000000 38.969002 30.507999 20.814240 # Cd LIG
450 3 5 0.000000 52.016998 7.909000 20.814240 # Cd LIG
451 3 6 0.000000 12.749000 30.808001 21.852242 # H LIG
452 3 6 0.000000 25.797001 8.208000 21.852242 # H LIG
453 3 6 0.000000 38.844002 30.808001 21.852242 # H LIG
454 3 6 0.000000 51.891998 8.208000 21.852242 # H LIG
455 3 8 0.000000 2.013000 8.310000 22.470242 # Ob LIG
456 3 8 0.000000 15.060000 30.910000 22.470242 # Ob LIG
457 3 8 0.000000 28.108000 8.310000 22.470242 # Ob LIG
458 3 8 0.000000 41.155998 30.910000 22.470242 # Ob LIG
459 3 3 0.000000 11.923000 29.968000 18.662241 # Cb LIG
460 3 3 0.000000 24.971001 7.369000 18.662241 # Cb LIG
461 3 3 0.000000 38.019001 29.968000 18.662241 # Cb LIG
462 3 3 0.000000 51.066002 7.369000 18.662241 # Cb LIG
463 3 4 0.000000 11.731000 30.358000 20.024240 # Cc LIG
464 3 4 0.000000 24.778999 7.759000 20.024240 # Cc LIG
465 3 4 0.000000 37.826000 30.358000 20.024240 # Cc LIG
466 3 4 0.000000 50.874001 7.759000 20.024240 # Cc LIG
467 3 5 0.000000 0.174000 7.157000 18.182240 # Cd LIG
468 3 5 0.000000 13.222000 29.756001 18.182240 # Cd LIG
469 3 5 0.000000 26.268999 7.157000 18.182240 # Cd LIG
470 3 5 0.000000 39.317001 29.756001 18.182240 # Cd LIG
471 3 2 0.000000 10.803000 29.760000 17.714241 # Ca LIG
472 3 2 0.000000 23.851000 7.161000 17.714241 # Ca LIG
473 3 2 0.000000 36.898998 29.760000 17.714241 # Ca LIG
474 3 2 0.000000 49.945999 7.161000 17.714241 # Ca LIG
475 3 8 0.000000 11.035000 29.355000 23.407242 # Ob LIG
476 3 8 0.000000 24.083000 6.756000 23.407242 # Ob LIG
477 3 8 0.000000 37.130001 29.355000 23.407242 # Ob LIG
478 3 8 0.000000 50.178001 6.756000 23.407242 # Ob LIG
479 3 2 0.000000 5.079000 20.590000 21.282242 # Ca LIG
480 3 2 0.000000 18.127001 43.188999 21.282242 # Ca LIG
481 3 2 0.000000 31.174999 20.590000 21.282242 # Ca LIG
482 3 2 0.000000 44.222000 43.188999 21.282242 # Ca LIG
483 3 3 0.000000 5.820000 19.724001 20.334240 # Cb LIG
484 3 3 0.000000 18.867001 42.323002 20.334240 # Cb LIG
485 3 3 0.000000 31.915001 19.724001 20.334240 # Cb LIG
486 3 3 0.000000 44.963001 42.323002 20.334240 # Cb LIG
487 3 4 0.000000 6.061000 20.086000 18.972240 # Cc LIG
488 3 4 0.000000 19.108999 42.685001 18.972240 # Cc LIG
489 3 4 0.000000 32.155998 20.086000 18.972240 # Cc LIG
490 3 4 0.000000 45.203999 42.685001 18.972240 # Cc LIG
491 3 5 0.000000 6.285000 18.493999 20.814240 # Cd LIG
492 3 5 0.000000 19.333000 41.092999 20.814240 # Cd LIG
493 3 5 0.000000 32.380001 18.493999 20.814240 # Cd LIG
494 3 5 0.000000 45.428001 41.092999 20.814240 # Cd LIG
495 3 6 0.000000 6.088000 18.236000 21.852242 # H LIG
496 3 6 0.000000 19.136000 40.834999 21.852242 # H LIG
497 3 6 0.000000 32.183998 18.236000 21.852242 # H LIG
498 3 6 0.000000 45.230999 40.834999 21.852242 # H LIG
499 3 8 0.000000 4.844000 20.187000 22.470242 # Ob LIG
500 3 8 0.000000 17.892000 42.785999 22.470242 # Ob LIG
501 3 8 0.000000 30.940001 20.187000 22.470242 # Ob LIG
502 3 8 0.000000 43.987000 42.785999 22.470242 # Ob LIG
503 3 3 0.000000 7.228000 17.941000 18.662241 # Cb LIG
504 3 3 0.000000 20.275999 40.540001 18.662241 # Cb LIG
505 3 3 0.000000 33.323002 17.941000 18.662241 # Cb LIG
506 3 3 0.000000 46.370998 40.540001 18.662241 # Cb LIG
507 3 4 0.000000 6.987000 17.579000 20.024240 # Cc LIG
508 3 4 0.000000 20.034000 40.179001 20.024240 # Cc LIG
509 3 4 0.000000 33.082001 17.579000 20.024240 # Cc LIG
510 3 4 0.000000 46.130001 40.179001 20.024240 # Cc LIG
511 3 5 0.000000 6.763000 19.171000 18.182240 # Cd LIG
512 3 5 0.000000 19.809999 41.771000 18.182240 # Cd LIG
513 3 5 0.000000 32.858002 19.171000 18.182240 # Cd LIG
514 3 5 0.000000 45.905998 41.771000 18.182240 # Cd LIG
515 3 2 0.000000 7.968000 17.075001 17.714241 # Ca LIG
516 3 2 0.000000 21.016001 39.674000 17.714241 # Ca LIG
517 3 2 0.000000 34.063999 17.075001 17.714241 # Ca LIG
518 3 2 0.000000 47.111000 39.674000 17.714241 # Ca LIG
519 3 8 0.000000 8.203000 17.478001 23.407242 # Ob LIG
520 3 8 0.000000 21.250999 40.077000 23.407242 # Ob LIG
521 3 8 0.000000 34.299000 17.478001 23.407242 # Ob LIG
522 3 8 0.000000 47.346001 40.077000 23.407242 # Ob LIG
523 3 10 0.000000 5.331000 23.061001 19.275242 # Zn LIG
524 3 10 0.000000 18.378000 0.461000 19.275242 # Zn LIG
525 3 10 0.000000 31.426001 23.061001 19.275242 # Zn LIG
526 3 10 0.000000 44.473999 0.461000 19.275242 # Zn LIG
527 3 8 0.000000 6.191000 24.233999 17.882240 # Ob LIG
528 3 8 0.000000 19.238001 1.635000 17.882240 # Ob LIG
529 3 8 0.000000 32.285999 24.233999 17.882240 # Ob LIG