LAMMPS data file. CGCMM style. atom_style full generated by VMD/TopoTools v1.5 on Sat Apr 22 10:14:50 PDT 2017
 1317 atoms
 0 bonds
 0 angles
 0 dihedrals
 0 impropers
 10 atom types
 0 bond types
 0 angle types
 0 dihedral types
 0 improper types
 0.444700 26.558700  xlo xhi
 0.314250 45.544250  ylo yhi
 -0.000021 27.666979  zlo zhi

# Pair Coeffs
#
# 1  CH4
# 2  Ca
# 3  Cb
# 4  Cc
# 5  Cd
# 6  H
# 7  Mg
# 8  Oa
# 9  Ob
# 10  Oc

 Masses

 1 16.040001 # CH4
 2 12.011000 # Ca
 3 12.011000 # Cb
 4 12.011000 # Cc
 5 12.011000 # Cd
 6 1.008000 # H
 7 24.305000 # Mg
 8 15.999000 # Oa
 9 15.999000 # Ob
 10 15.999000 # Oc

 Atoms

1 1 1 0.000000 26.114401 45.230499 16.139000 # CH4 
2 2 1 0.000000 26.114401 45.230499 20.750000 # CH4 
3 3 1 0.000000 26.114401 45.230499 25.361000 # CH4 
4 4 1 0.000000 26.114401 45.230499 2.306000 # CH4 
5 5 1 0.000000 26.114401 45.230499 6.917000 # CH4 
6 6 1 0.000000 26.114401 45.230499 11.528000 # CH4 
7 7 1 0.000000 26.114401 22.614500 16.139000 # CH4 
8 8 1 0.000000 26.114401 22.614500 20.750000 # CH4 
9 9 1 0.000000 26.114401 22.614500 25.361000 # CH4 
10 10 1 0.000000 26.114401 22.614500 2.306000 # CH4 
11 11 1 0.000000 26.114401 22.614500 6.917000 # CH4 
12 12 1 0.000000 26.114401 22.614500 11.528000 # CH4 
13 13 1 0.000000 13.056400 45.230499 16.139000 # CH4 
14 14 1 0.000000 13.056400 45.230499 20.750000 # CH4 
15 15 1 0.000000 13.056400 45.230499 25.361000 # CH4 
16 16 1 0.000000 13.056400 45.230499 2.306000 # CH4 
17 17 1 0.000000 13.056400 45.230499 6.917000 # CH4 
18 18 1 0.000000 13.056400 45.230499 11.528000 # CH4 
19 19 1 0.000000 13.056400 22.614500 16.139000 # CH4 
20 20 1 0.000000 13.056400 22.614500 20.750000 # CH4 
21 21 1 0.000000 13.056400 22.614500 25.361000 # CH4 
22 22 7 0.000000 5.314000 7.966000 21.684460 # Mg LIG
23 22 7 0.000000 18.371000 30.580999 21.684460 # Mg LIG
24 22 7 0.000000 4.242000 6.491000 19.378460 # Mg LIG
25 22 7 0.000000 17.299000 29.106001 19.378460 # Mg LIG
26 22 7 0.000000 3.501000 8.158000 23.990459 # Mg LIG
27 22 7 0.000000 16.558001 30.773001 23.990459 # Mg LIG
28 22 7 0.000000 7.743000 14.649000 19.815460 # Mg LIG
29 22 7 0.000000 20.799000 37.264000 19.815460 # Mg LIG
30 22 7 0.000000 8.815000 16.124001 22.120461 # Mg LIG
31 22 7 0.000000 21.872000 38.738998 22.120461 # Mg LIG
32 22 7 0.000000 9.556000 14.457000 17.509460 # Mg LIG
33 22 7 0.000000 22.613001 37.071999 17.509460 # Mg LIG
34 22 7 0.000000 8.815000 31.200001 19.815460 # Mg LIG
35 22 7 0.000000 21.872000 8.585000 19.815460 # Mg LIG
36 22 7 0.000000 9.556000 29.534000 22.120461 # Mg LIG
37 22 7 0.000000 22.613001 6.919000 22.120461 # Mg LIG
38 22 7 0.000000 4.242000 21.568001 23.990459 # Mg LIG
39 22 7 0.000000 17.299000 44.182999 23.990459 # Mg LIG
40 22 7 0.000000 8.815000 1.047000 17.509460 # Mg LIG
41 22 7 0.000000 21.872000 23.662001 17.509460 # Mg LIG
42 22 7 0.000000 5.314000 38.118999 23.990459 # Mg LIG
43 22 7 0.000000 18.371000 15.504000 23.990459 # Mg LIG
44 22 7 0.000000 7.743000 44.801998 22.120461 # Mg LIG
45 22 7 0.000000 20.799000 22.187000 22.120461 # Mg LIG
46 22 7 0.000000 9.556000 44.611000 19.815460 # Mg LIG
47 22 7 0.000000 22.613001 21.996000 19.815460 # Mg LIG
48 22 7 0.000000 3.501000 38.311001 19.378460 # Mg LIG
49 22 7 0.000000 16.558001 15.696000 19.378460 # Mg LIG
50 22 7 0.000000 4.242000 36.645000 21.684460 # Mg LIG
51 22 7 0.000000 17.299000 14.030000 21.684460 # Mg LIG
52 22 7 0.000000 5.314000 23.042999 19.378460 # Mg LIG
53 22 7 0.000000 18.371000 0.428000 19.378460 # Mg LIG
54 22 7 0.000000 3.501000 23.233999 21.684460 # Mg LIG
55 22 7 0.000000 16.558001 0.619000 21.684460 # Mg LIG
56 22 7 0.000000 7.743000 29.726000 17.509460 # Mg LIG
57 22 7 0.000000 20.799000 7.111000 17.509460 # Mg LIG
58 22 2 0.000000 5.704000 9.170000 19.055460 # Ca LIG
59 22 2 0.000000 18.761000 31.785000 19.055460 # Ca LIG
60 22 3 0.000000 6.098000 10.247000 18.115459 # Cb LIG
61 22 3 0.000000 19.155001 32.862000 18.115459 # Cb LIG
62 22 5 0.000000 6.932000 11.258000 18.610460 # Cd LIG
63 22 5 0.000000 19.989000 33.873001 18.610460 # Cd LIG
64 22 6 0.000000 7.248000 11.206000 19.650459 # H LIG
65 22 6 0.000000 20.305000 33.820999 19.650459 # H LIG
66 22 9 0.000000 6.149000 9.140000 20.245461 # Ob LIG
67 22 9 0.000000 19.205999 31.754999 20.245461 # Ob LIG
68 22 8 0.000000 4.881000 8.269000 18.627460 # Oa LIG
69 22 8 0.000000 17.938000 30.884001 18.627460 # Oa LIG
70 22 10 0.000000 8.183000 13.257000 18.410460 # Oc LIG
71 22 10 0.000000 21.240000 35.872002 18.410460 # Oc LIG
72 22 8 0.000000 4.721000 6.715000 23.238461 # Oa LIG
73 22 8 0.000000 17.777000 29.330000 23.238461 # Oa LIG
74 22 8 0.000000 3.455000 7.631000 20.933460 # Oa LIG
75 22 8 0.000000 16.511000 30.246000 20.933460 # Oa LIG
76 22 10 0.000000 4.874000 9.358000 23.088459 # Oc LIG
77 22 10 0.000000 17.930000 31.973000 23.088459 # Oc LIG
78 22 10 0.000000 5.668000 6.177000 20.783461 # Oc LIG
79 22 10 0.000000 18.725000 28.792000 20.783461 # Oc LIG
80 22 4 0.000000 5.672000 10.284000 23.664459 # Cc LIG
81 22 4 0.000000 18.729000 32.898998 23.664459 # Cc LIG
82 22 2 0.000000 7.353000 13.445000 22.444460 # Ca LIG
83 22 2 0.000000 20.409000 36.060001 22.444460 # Ca LIG
84 22 3 0.000000 6.959000 12.368000 23.384460 # Cb LIG
85 22 3 0.000000 20.016001 34.983002 23.384460 # Cb LIG
86 22 4 0.000000 7.384000 12.331000 17.835461 # Cc LIG
87 22 4 0.000000 20.441000 34.945999 17.835461 # Cc LIG
88 22 5 0.000000 6.125000 11.357000 22.889460 # Cd LIG
89 22 5 0.000000 19.181000 33.972000 22.889460 # Cd LIG
90 22 6 0.000000 5.809000 11.409000 21.849461 # H LIG
91 22 6 0.000000 18.865999 34.023998 21.849461 # H LIG
92 22 9 0.000000 6.908000 13.475000 21.254459 # Ob LIG
93 22 9 0.000000 19.965000 36.090000 21.254459 # Ob LIG
94 22 8 0.000000 8.175000 14.346000 22.871460 # Oa LIG
95 22 8 0.000000 21.232000 36.960999 22.871460 # Oa LIG
96 22 8 0.000000 8.336000 15.900000 18.260460 # Oa LIG
97 22 8 0.000000 21.393000 38.514999 18.260460 # Oa LIG
98 22 8 0.000000 9.602000 14.984000 20.566460 # Oa LIG
99 22 8 0.000000 22.659000 37.598999 20.566460 # Oa LIG
100 22 10 0.000000 7.389000 16.438000 20.716461 # Oc LIG
101 22 10 0.000000 20.445999 39.053001 20.716461 # Oc LIG
102 22 8 0.000000 9.602000 30.059999 18.260460 # Oa LIG
103 22 8 0.000000 22.659000 7.445000 18.260460 # Oa LIG
104 22 8 0.000000 8.336000 30.976999 22.871460 # Oa LIG
105 22 8 0.000000 21.393000 8.362000 22.871460 # Oa LIG
106 22 8 0.000000 4.721000 21.791000 20.933460 # Oa LIG
107 22 8 0.000000 17.777000 44.405998 20.933460 # Oa LIG
108 22 10 0.000000 5.668000 21.254000 18.477459 # Oc LIG
109 22 10 0.000000 18.725000 43.868999 18.477459 # Oc LIG
110 22 8 0.000000 8.336000 0.824000 20.566460 # Oa LIG
111 22 8 0.000000 21.393000 23.438999 20.566460 # Oa LIG
112 22 10 0.000000 7.389000 1.361000 23.021460 # Oc LIG
113 22 10 0.000000 20.445999 23.976000 23.021460 # Oc LIG
114 22 10 0.000000 4.874000 39.512001 18.477459 # Oc LIG
115 22 10 0.000000 17.930000 16.896999 18.477459 # Oc LIG
116 22 2 0.000000 5.704000 39.324001 21.360460 # Ca LIG
117 22 2 0.000000 18.761000 16.709000 21.360460 # Ca LIG
118 22 3 0.000000 6.098000 40.401001 20.421459 # Cb LIG
119 22 3 0.000000 19.155001 17.785999 20.421459 # Cb LIG
120 22 4 0.000000 5.672000 40.438000 19.053459 # Cc LIG
121 22 4 0.000000 18.729000 17.823000 19.053459 # Cc LIG
122 22 5 0.000000 6.932000 41.410999 20.916460 # Cd LIG
123 22 5 0.000000 19.989000 18.796000 20.916460 # Cd LIG
124 22 6 0.000000 7.248000 41.359001 21.955460 # H LIG
125 22 6 0.000000 20.305000 18.743999 21.955460 # H LIG
126 22 9 0.000000 6.149000 39.292999 22.550461 # Ob LIG
127 22 9 0.000000 19.205999 16.677999 22.550461 # Ob LIG
128 22 8 0.000000 4.882000 38.423000 20.933460 # Oa LIG
129 22 8 0.000000 17.938000 15.808000 20.933460 # Oa LIG
130 22 3 0.000000 6.959000 42.521000 18.773460 # Cb LIG
131 22 3 0.000000 20.016001 19.906000 18.773460 # Cb LIG
132 22 4 0.000000 7.384000 42.484001 20.140461 # Cc LIG
133 22 4 0.000000 20.441000 19.868999 20.140461 # Cc LIG
134 22 5 0.000000 6.125000 41.509998 18.277460 # Cd LIG
135 22 5 0.000000 19.181000 18.895000 18.277460 # Cd LIG
136 22 8 0.000000 8.175000 44.499001 18.260460 # Oa LIG
137 22 8 0.000000 21.232000 21.884001 18.260460 # Oa LIG
138 22 10 0.000000 8.183000 43.410000 20.716461 # Oc LIG
139 22 10 0.000000 21.240000 20.795000 20.716461 # Oc LIG
140 22 10 0.000000 5.668000 36.330002 23.088459 # Oc LIG
141 22 10 0.000000 18.725000 13.715000 23.088459 # Oc LIG
142 22 2 0.000000 7.353000 43.598000 17.833460 # Ca LIG
143 22 2 0.000000 20.409000 20.983000 17.833460 # Ca LIG
144 22 9 0.000000 6.908000 43.627998 23.559460 # Ob LIG
145 22 9 0.000000 19.965000 21.013000 23.559460 # Ob LIG
146 22 8 0.000000 9.602000 45.137001 22.871460 # Oa LIG
147 22 8 0.000000 22.659000 22.521999 22.871460 # Oa LIG
148 22 8 0.000000 4.721000 36.868000 18.627460 # Oa LIG
149 22 8 0.000000 17.778000 14.253000 18.627460 # Oa LIG
150 22 8 0.000000 3.455000 37.785000 23.238461 # Oa LIG
151 22 8 0.000000 16.511000 15.170000 23.238461 # Oa LIG
152 22 10 0.000000 2.515000 22.156000 23.088459 # Oc LIG
153 22 10 0.000000 15.572000 44.771000 23.088459 # Oc LIG
154 22 4 0.000000 1.314000 22.385000 23.664459 # Cc LIG
155 22 4 0.000000 14.371000 45.000000 23.664459 # Cc LIG
156 22 2 0.000000 10.794000 44.875000 22.444460 # Ca LIG
157 22 2 0.000000 23.851000 22.260000 22.444460 # Ca LIG
158 22 3 0.000000 11.924000 45.073002 23.384460 # Cb LIG
159 22 3 0.000000 24.980000 22.458000 23.384460 # Cb LIG
160 22 5 0.000000 0.159000 22.240999 22.889460 # Cd LIG
161 22 5 0.000000 13.216000 44.855999 22.889460 # Cd LIG
162 22 6 0.000000 0.271000 21.941000 21.849461 # H LIG
163 22 6 0.000000 13.328000 44.556000 21.849461 # H LIG
164 22 9 0.000000 10.990000 44.474998 21.254459 # Ob LIG
165 22 9 0.000000 24.047001 21.860001 21.254459 # Ob LIG
166 22 4 0.000000 6.070000 35.174999 23.664459 # Cc LIG
167 22 4 0.000000 19.127001 12.560000 23.664459 # Cc LIG
168 22 2 0.000000 7.967000 32.139999 22.444460 # Ca LIG
169 22 2 0.000000 21.024000 9.525000 22.444460 # Ca LIG
170 22 3 0.000000 7.231000 33.020000 23.384460 # Cb LIG
171 22 3 0.000000 20.288000 10.405000 23.384460 # Cb LIG
172 22 5 0.000000 6.773000 34.248001 22.889460 # Cd LIG
173 22 5 0.000000 19.830000 11.633000 22.889460 # Cd LIG
174 22 6 0.000000 6.977000 34.494999 21.849461 # H LIG
175 22 6 0.000000 20.033001 11.880000 21.849461 # H LIG
176 22 9 0.000000 8.216000 32.509998 21.254459 # Ob LIG
177 22 9 0.000000 21.273001 9.895000 21.254459 # Ob LIG
178 22 10 0.000000 10.541000 30.612000 20.716461 # Oc LIG
179 22 10 0.000000 23.598000 7.997000 20.716461 # Oc LIG
180 22 2 0.000000 5.090000 35.705002 19.055460 # Ca LIG
181 22 2 0.000000 18.146000 13.090000 19.055460 # Ca LIG
182 22 3 0.000000 5.826000 34.825001 18.115459 # Cb LIG
183 22 3 0.000000 18.882000 12.210000 18.115459 # Cb LIG
184 22 5 0.000000 6.284000 33.597000 18.610460 # Cd LIG
185 22 5 0.000000 19.341000 10.982000 18.610460 # Cd LIG
186 22 6 0.000000 6.080000 33.349998 19.650459 # H LIG
187 22 6 0.000000 19.136999 10.735000 19.650459 # H LIG
188 22 9 0.000000 4.841000 35.334999 20.245461 # Ob LIG
189 22 9 0.000000 17.898001 12.720000 20.245461 # Ob LIG
190 22 10 0.000000 2.515000 37.233002 20.783461 # Oc LIG
191 22 10 0.000000 15.572000 14.618000 20.783461 # Oc LIG
192 22 9 0.000000 2.067000 38.446999 17.939461 # Ob LIG
193 22 9 0.000000 15.124000 15.832000 17.939461 # Ob LIG
194 22 2 0.000000 2.263000 38.046001 23.666460 # Ca LIG
195 22 2 0.000000 15.320000 15.431000 23.666460 # Ca LIG
196 22 3 0.000000 1.133000 37.848999 22.726460 # Cb LIG
197 22 3 0.000000 14.190000 15.234000 22.726460 # Cb LIG
198 22 4 0.000000 1.314000 37.462002 21.358459 # Cc LIG
199 22 4 0.000000 14.371000 14.847000 21.358459 # Cc LIG
200 22 5 0.000000 12.898000 15.451000 23.221460 # Cd LIG
201 22 5 0.000000 25.954000 38.066002 23.221460 # Cd LIG
202 22 6 0.000000 12.785000 15.751000 17.344460 # H LIG
203 22 6 0.000000 25.841999 38.366001 17.344460 # H LIG
204 22 2 0.000000 10.794000 14.722000 20.138460 # Ca LIG
205 22 2 0.000000 23.851000 37.337002 20.138460 # Ca LIG
206 22 3 0.000000 11.924000 14.919000 21.078461 # Cb LIG
207 22 3 0.000000 24.980000 37.534000 21.078461 # Cb LIG
208 22 4 0.000000 11.743000 15.306000 22.446461 # Cc LIG
209 22 4 0.000000 24.799000 37.921001 22.446461 # Cc LIG
210 22 5 0.000000 0.159000 37.317001 20.583460 # Cd LIG
211 22 5 0.000000 13.216000 14.702000 20.583460 # Cd LIG
212 22 6 0.000000 0.272000 37.016998 19.543461 # H LIG
213 22 6 0.000000 13.328000 14.402000 19.543461 # H LIG
214 22 9 0.000000 10.990000 14.322000 18.948460 # Ob LIG
215 22 9 0.000000 24.047001 36.937000 18.948460 # Ob LIG
216 22 10 0.000000 10.541000 15.535000 23.021460 # Oc LIG
217 22 10 0.000000 23.598000 38.150002 23.021460 # Oc LIG
218 22 9 0.000000 4.841000 5.182000 17.939461 # Ob LIG
219 22 9 0.000000 17.898001 27.797001 17.939461 # Ob LIG
220 22 10 0.000000 2.515000 7.080000 18.477459 # Oc LIG
221 22 10 0.000000 15.572000 29.695000 18.477459 # Oc LIG
222 22 2 0.000000 5.090000 5.552000 23.666460 # Ca LIG
223 22 2 0.000000 18.146000 28.167000 23.666460 # Ca LIG
224 22 3 0.000000 5.826000 4.672000 22.726460 # Cb LIG
225 22 3 0.000000 18.882000 27.287001 22.726460 # Cb LIG
226 22 4 0.000000 6.070000 5.022000 21.358459 # Cc LIG
227 22 4 0.000000 19.127001 27.636999 21.358459 # Cc LIG
228 22 5 0.000000 6.284000 3.444000 23.221460 # Cd LIG
229 22 5 0.000000 19.340000 26.059000 23.221460 # Cd LIG
230 22 6 0.000000 6.080000 3.197000 17.344460 # H LIG
231 22 6 0.000000 19.136999 25.812000 17.344460 # H LIG
232 22 2 0.000000 7.967000 1.987000 20.138460 # Ca LIG
233 22 2 0.000000 21.024000 24.601999 20.138460 # Ca LIG
234 22 3 0.000000 7.231000 2.866000 21.078461 # Cb LIG
235 22 3 0.000000 20.288000 25.481001 21.078461 # Cb LIG
236 22 4 0.000000 6.987000 2.516000 22.446461 # Cc LIG
237 22 4 0.000000 20.042999 25.131001 22.446461 # Cc LIG
238 22 5 0.000000 6.773000 4.094000 20.583460 # Cd LIG
239 22 5 0.000000 19.830000 26.709000 20.583460 # Cd LIG
240 22 6 0.000000 6.977000 4.341000 19.543461 # H LIG
241 22 6 0.000000 20.033001 26.955999 19.543461 # H LIG
242 22 9 0.000000 8.216000 2.357000 18.948460 # Ob LIG
243 22 9 0.000000 21.273001 24.972000 18.948460 # Ob LIG
244 22 2 0.000000 2.263000 7.893000 21.360460 # Ca LIG
245 22 2 0.000000 15.320000 30.507999 21.360460 # Ca LIG
246 22 3 0.000000 1.133000 7.696000 20.421459 # Cb LIG
247 22 3 0.000000 14.190000 30.311001 20.421459 # Cb LIG
248 22 4 0.000000 1.314000 7.309000 19.053459 # Cc LIG
249 22 4 0.000000 14.371000 29.924000 19.053459 # Cc LIG
250 22 5 0.000000 12.898000 30.528000 20.916460 # Cd LIG
251 22 5 0.000000 25.954000 7.913000 20.916460 # Cd LIG
252 22 6 0.000000 12.785000 30.827999 21.955460 # H LIG
253 22 6 0.000000 25.841999 8.213000 21.955460 # H LIG
254 22 9 0.000000 2.067000 8.293000 22.550461 # Ob LIG
255 22 9 0.000000 15.124000 30.908001 22.550461 # Ob LIG
256 22 3 0.000000 11.924000 29.996000 18.773460 # Cb LIG
257 22 3 0.000000 24.980000 7.381000 18.773460 # Cb LIG
258 22 4 0.000000 11.743000 30.382999 20.140461 # Cc LIG
259 22 4 0.000000 24.799000 7.768000 20.140461 # Cc LIG
260 22 5 0.000000 0.159000 7.164000 18.277460 # Cd LIG
261 22 5 0.000000 13.216000 29.778999 18.277460 # Cd LIG
262 22 2 0.000000 10.794000 29.799000 17.833460 # Ca LIG
263 22 2 0.000000 23.851000 7.184000 17.833460 # Ca LIG
264 22 9 0.000000 10.990000 29.398001 23.559460 # Ob LIG
265 22 9 0.000000 24.047001 6.783000 23.559460 # Ob LIG
266 22 2 0.000000 5.090000 20.628000 21.360460 # Ca LIG
267 22 2 0.000000 18.146000 43.243000 21.360460 # Ca LIG
268 22 3 0.000000 5.826000 19.749001 20.421459 # Cb LIG
269 22 3 0.000000 18.882000 42.363998 20.421459 # Cb LIG
270 22 4 0.000000 6.070000 20.099001 19.053459 # Cc LIG
271 22 4 0.000000 19.127001 42.714001 19.053459 # Cc LIG
272 22 5 0.000000 6.284000 18.521000 20.916460 # Cd LIG
273 22 5 0.000000 19.341000 41.136002 20.916460 # Cd LIG
274 22 6 0.000000 6.080000 18.274000 21.955460 # H LIG
275 22 6 0.000000 19.136999 40.889000 21.955460 # H LIG
276 22 9 0.000000 4.841000 20.257999 22.550461 # Ob LIG
277 22 9 0.000000 17.898001 42.873001 22.550461 # Ob LIG
278 22 3 0.000000 7.231000 17.943001 18.773460 # Cb LIG
279 22 3 0.000000 20.288000 40.557999 18.773460 # Cb LIG
280 22 4 0.000000 6.987000 17.593000 20.140461 # Cc LIG
281 22 4 0.000000 20.042999 40.208000 20.140461 # Cc LIG
282 22 5 0.000000 6.773000 19.171000 18.277460 # Cd LIG
283 22 5 0.000000 19.830000 41.785999 18.277460 # Cd LIG
284 22 2 0.000000 7.967000 17.063000 17.833460 # Ca LIG
285 22 2 0.000000 21.024000 39.678001 17.833460 # Ca LIG
286 22 9 0.000000 8.216000 17.433001 23.559460 # Ob LIG
287 22 9 0.000000 21.273001 40.048000 23.559460 # Ob LIG
288 22 9 0.000000 6.149000 24.216999 17.939461 # Ob LIG
289 22 9 0.000000 19.205999 1.602000 17.939461 # Ob LIG
290 22 8 0.000000 3.455000 22.708000 18.627460 # Oa LIG
291 22 8 0.000000 16.511000 0.093000 18.627460 # Oa LIG
292 22 10 0.000000 4.874000 24.434999 20.783461 # Oc LIG
293 22 10 0.000000 17.930000 1.820000 20.783461 # Oc LIG
294 22 2 0.000000 5.704000 24.247000 23.666460 # Ca LIG
295 22 2 0.000000 18.761000 1.632000 23.666460 # Ca LIG
296 22 3 0.000000 6.098000 25.323999 22.726460 # Cb LIG
297 22 3 0.000000 19.155001 2.709000 22.726460 # Cb LIG
298 22 4 0.000000 5.672000 25.361000 21.358459 # Cc LIG
299 22 4 0.000000 18.729000 2.746000 21.358459 # Cc LIG
300 22 5 0.000000 6.932000 26.334999 23.221460 # Cd LIG
301 22 5 0.000000 19.989000 3.720000 23.221460 # Cd LIG
302 22 6 0.000000 7.248000 26.282000 17.344460 # H LIG
303 22 6 0.000000 20.305000 3.667000 17.344460 # H LIG
304 22 8 0.000000 4.881000 23.346001 23.238461 # Oa LIG
305 22 8 0.000000 17.938000 0.731000 23.238461 # Oa LIG
306 22 2 0.000000 7.353000 28.521000 20.138460 # Ca LIG
307 22 2 0.000000 20.409000 5.906000 20.138460 # Ca LIG
308 22 3 0.000000 6.959000 27.444000 21.078461 # Cb LIG
309 22 3 0.000000 20.016001 4.829000 21.078461 # Cb LIG
310 22 4 0.000000 7.384000 27.407000 22.446461 # Cc LIG
311 22 4 0.000000 20.441000 4.792000 22.446461 # Cc LIG
312 22 5 0.000000 6.125000 26.434000 20.583460 # Cd LIG
313 22 5 0.000000 19.181000 3.819000 20.583460 # Cd LIG
314 22 6 0.000000 5.809000 26.486000 19.543461 # H LIG
315 22 6 0.000000 18.865999 3.871000 19.543461 # H LIG
316 22 9 0.000000 6.908000 28.552000 18.948460 # Ob LIG
317 22 9 0.000000 19.965000 5.937000 18.948460 # Ob LIG
318 22 8 0.000000 8.175000 29.422001 20.566460 # Oa LIG
319 22 8 0.000000 21.232000 6.807000 20.566460 # Oa LIG
320 22 10 0.000000 8.183000 28.333000 23.021460 # Oc LIG
321 22 10 0.000000 21.240000 5.718000 23.021460 # Oc LIG
322 22 2 0.000000 2.263000 22.969999 19.055460 # Ca LIG
323 22 2 0.000000 15.320000 0.355000 19.055460 # Ca LIG
324 22 3 0.000000 1.133000 22.771999 18.115459 # Cb LIG
325 22 3 0.000000 14.190000 0.157000 18.115459 # Cb LIG
326 22 5 0.000000 12.898000 0.374000 18.610460 # Cd LIG
327 22 5 0.000000 25.954000 22.989000 18.610460 # Cd LIG
328 22 6 0.000000 12.785000 0.674000 19.650459 # H LIG
329 22 6 0.000000 25.841999 23.289000 19.650459 # H LIG
330 22 9 0.000000 2.067000 23.370001 20.245461 # Ob LIG
331 22 9 0.000000 15.124000 0.755000 20.245461 # Ob LIG
332 22 10 0.000000 7.389000 31.514999 18.410460 # Oc LIG
333 22 10 0.000000 20.445999 8.900000 18.410460 # Oc LIG
334 22 6 0.000000 5.809000 41.563000 24.154461 # H LIG
335 22 6 0.000000 18.865999 18.948000 24.154461 # H LIG
336 22 10 0.000000 10.541000 0.459000 18.410460 # Oc LIG
337 22 10 0.000000 23.598000 23.073999 18.410460 # Oc LIG
338 22 4 0.000000 11.743000 0.230000 17.835461 # Cc LIG
339 22 4 0.000000 24.799999 22.844999 17.835461 # Cc LIG
340 22 4 0.000000 6.986000 32.669998 17.835461 # Cc LIG
341 22 4 0.000000 20.042999 10.055000 17.835461 # Cc LIG
342 22 6 0.000000 0.271000 6.864000 24.154461 # H LIG
343 22 6 0.000000 13.328000 29.479000 24.154461 # H LIG
344 22 6 0.000000 6.977000 19.417999 24.154461 # H LIG
345 22 6 0.000000 20.033001 42.033001 24.154461 # H LIG
346 22 7 0.000000 5.314000 7.966000 0.934500 # Mg LIG
347 22 7 0.000000 18.371000 30.580999 0.934500 # Mg LIG
348 22 7 0.000000 4.242000 6.491000 26.295460 # Mg LIG
349 22 7 0.000000 17.299000 29.106001 26.295460 # Mg LIG
350 22 7 0.000000 3.501000 8.158000 3.240500 # Mg LIG
351 22 7 0.000000 16.558001 30.773001 3.240500 # Mg LIG
352 22 7 0.000000 7.743000 14.649000 26.732460 # Mg LIG
353 22 7 0.000000 20.799000 37.264000 26.732460 # Mg LIG
354 22 7 0.000000 8.815000 16.124001 1.370500 # Mg LIG
355 22 7 0.000000 21.872000 38.738998 1.370500 # Mg LIG
356 22 7 0.000000 9.556000 14.457000 24.426460 # Mg LIG
357 22 7 0.000000 22.613001 37.071999 24.426460 # Mg LIG
358 22 7 0.000000 8.815000 31.200001 26.732460 # Mg LIG
359 22 7 0.000000 21.872000 8.585000 26.732460 # Mg LIG
360 22 7 0.000000 9.556000 29.534000 1.370500 # Mg LIG
361 22 7 0.000000 22.613001 6.919000 1.370500 # Mg LIG
362 22 7 0.000000 4.242000 21.568001 3.240500 # Mg LIG
363 22 7 0.000000 17.299000 44.182999 3.240500 # Mg LIG
364 22 7 0.000000 8.815000 1.047000 24.426460 # Mg LIG
365 22 7 0.000000 21.872000 23.662001 24.426460 # Mg LIG
366 22 7 0.000000 5.314000 38.118999 3.240500 # Mg LIG
367 22 7 0.000000 18.371000 15.504000 3.240500 # Mg LIG
368 22 7 0.000000 7.743000 44.801998 1.370500 # Mg LIG
369 22 7 0.000000 20.799000 22.187000 1.370500 # Mg LIG
370 22 7 0.000000 9.556000 44.611000 26.732460 # Mg LIG
371 22 7 0.000000 22.613001 21.996000 26.732460 # Mg LIG
372 22 7 0.000000 3.501000 38.311001 26.295460 # Mg LIG
373 22 7 0.000000 16.558001 15.696000 26.295460 # Mg LIG
374 22 7 0.000000 4.242000 36.645000 0.934500 # Mg LIG
375 22 7 0.000000 17.299000 14.030000 0.934500 # Mg LIG
376 22 7 0.000000 5.314000 23.042999 26.295460 # Mg LIG
377 22 7 0.000000 18.371000 0.428000 26.295460 # Mg LIG
378 22 7 0.000000 3.501000 23.233999 0.934500 # Mg LIG
379 22 7 0.000000 16.558001 0.619000 0.934500 # Mg LIG
380 22 7 0.000000 7.743000 29.726000 24.426460 # Mg LIG
381 22 7 0.000000 20.799000 7.111000 24.426460 # Mg LIG
382 22 2 0.000000 5.704000 9.170000 25.972460 # Ca LIG
383 22 2 0.000000 18.761000 31.785000 25.972460 # Ca LIG
384 22 3 0.000000 6.098000 10.247000 25.032459 # Cb LIG
385 22 3 0.000000 19.155001 32.862000 25.032459 # Cb LIG
386 22 5 0.000000 6.932000 11.258000 25.527460 # Cd LIG
387 22 5 0.000000 19.989000 33.873001 25.527460 # Cd LIG
388 22 6 0.000000 7.248000 11.206000 26.567459 # H LIG
389 22 6 0.000000 20.305000 33.820999 26.567459 # H LIG
390 22 9 0.000000 6.149000 9.140000 27.162460 # Ob LIG
391 22 9 0.000000 19.205999 31.754999 27.162460 # Ob LIG
392 22 8 0.000000 4.881000 8.269000 25.544460 # Oa LIG
393 22 8 0.000000 17.938000 30.884001 25.544460 # Oa LIG
394 22 10 0.000000 8.183000 13.257000 25.327459 # Oc LIG
395 22 10 0.000000 21.240000 35.872002 25.327459 # Oc LIG
396 22 8 0.000000 4.721000 6.715000 2.488500 # Oa LIG
397 22 8 0.000000 17.777000 29.330000 2.488500 # Oa LIG
398 22 8 0.000000 3.455000 7.631000 0.183500 # Oa LIG
399 22 8 0.000000 16.511000 30.246000 0.183500 # Oa LIG
400 22 10 0.000000 4.874000 9.358000 2.338500 # Oc LIG
401 22 10 0.000000 17.930000 31.973000 2.338500 # Oc LIG
402 22 10 0.000000 5.668000 6.177000 0.033500 # Oc LIG
403 22 10 0.000000 18.725000 28.792000 0.033500 # Oc LIG
404 22 4 0.000000 5.672000 10.284000 2.914500 # Cc LIG
405 22 4 0.000000 18.729000 32.898998 2.914500 # Cc LIG
406 22 2 0.000000 7.353000 13.445000 1.694500 # Ca LIG
407 22 2 0.000000 20.409000 36.060001 1.694500 # Ca LIG
408 22 3 0.000000 6.959000 12.368000 2.634500 # Cb LIG
409 22 3 0.000000 20.016001 34.983002 2.634500 # Cb LIG
410 22 4 0.000000 7.384000 12.331000 24.752460 # Cc LIG
411 22 4 0.000000 20.441000 34.945999 24.752460 # Cc LIG
412 22 5 0.000000 6.125000 11.357000 2.139500 # Cd LIG
413 22 5 0.000000 19.181000 33.972000 2.139500 # Cd LIG
414 22 6 0.000000 5.809000 11.409000 1.099500 # H LIG
415 22 6 0.000000 18.865999 34.023998 1.099500 # H LIG
416 22 9 0.000000 6.908000 13.475000 0.504500 # Ob LIG
417 22 9 0.000000 19.965000 36.090000 0.504500 # Ob LIG
418 22 8 0.000000 8.175000 14.346000 2.121500 # Oa LIG
419 22 8 0.000000 21.232000 36.960999 2.121500 # Oa LIG
420 22 8 0.000000 8.336000 15.900000 25.177460 # Oa LIG
421 22 8 0.000000 21.393000 38.514999 25.177460 # Oa LIG
422 22 8 0.000000 9.602000 14.984000 27.483459 # Oa LIG
423 22 8 0.000000 22.659000 37.598999 27.483459 # Oa LIG
424 22 10 0.000000 7.389000 16.438000 27.633459 # Oc LIG
425 22 10 0.000000 20.445999 39.053001 27.633459 # Oc LIG
426 22 8 0.000000 9.602000 30.059999 25.177460 # Oa LIG
427 22 8 0.000000 22.659000 7.445000 25.177460 # Oa LIG
428 22 8 0.000000 8.336000 30.976999 2.121500 # Oa LIG
429 22 8 0.000000 21.393000 8.362000 2.121500 # Oa LIG
430 22 8 0.000000 4.721000 21.791000 0.183500 # Oa LIG
431 22 8 0.000000 17.777000 44.405998 0.183500 # Oa LIG
432 22 10 0.000000 5.668000 21.254000 25.394459 # Oc LIG
433 22 10 0.000000 18.725000 43.868999 25.394459 # Oc LIG
434 22 8 0.000000 8.336000 0.824000 27.483459 # Oa LIG
435 22 8 0.000000 21.393000 23.438999 27.483459 # Oa LIG
436 22 10 0.000000 7.389000 1.361000 2.271500 # Oc LIG
437 22 10 0.000000 20.445999 23.976000 2.271500 # Oc LIG
438 22 10 0.000000 4.874000 39.512001 25.394459 # Oc LIG
439 22 10 0.000000 17.930000 16.896999 25.394459 # Oc LIG
440 22 2 0.000000 5.704000 39.324001 0.610500 # Ca LIG
441 22 2 0.000000 18.761000 16.709000 0.610500 # Ca LIG
442 22 3 0.000000 6.098000 40.401001 27.338459 # Cb LIG
443 22 3 0.000000 19.155001 17.785999 27.338459 # Cb LIG
444 22 4 0.000000 5.672000 40.438000 25.970459 # Cc LIG
445 22 4 0.000000 18.729000 17.823000 25.970459 # Cc LIG
446 22 5 0.000000 6.932000 41.410999 0.166500 # Cd LIG
447 22 5 0.000000 19.989000 18.796000 0.166500 # Cd LIG
448 22 6 0.000000 7.248000 41.359001 1.205500 # H LIG
449 22 6 0.000000 20.305000 18.743999 1.205500 # H LIG
450 22 9 0.000000 6.149000 39.292999 1.800500 # Ob LIG
451 22 9 0.000000 19.205999 16.677999 1.800500 # Ob LIG
452 22 8 0.000000 4.882000 38.423000 0.183500 # Oa LIG
453 22 8 0.000000 17.938000 15.808000 0.183500 # Oa LIG
454 22 3 0.000000 6.959000 42.521000 25.690460 # Cb LIG
455 22 3 0.000000 20.016001 19.906000 25.690460 # Cb LIG
456 22 4 0.000000 7.384000 42.484001 27.057461 # Cc LIG
457 22 4 0.000000 20.441000 19.868999 27.057461 # Cc LIG
458 22 5 0.000000 6.125000 41.509998 25.194460 # Cd LIG
459 22 5 0.000000 19.181000 18.895000 25.194460 # Cd LIG
460 22 8 0.000000 8.175000 44.499001 25.177460 # Oa LIG
461 22 8 0.000000 21.232000 21.884001 25.177460 # Oa LIG
462 22 10 0.000000 8.183000 43.410000 27.633459 # Oc LIG
463 22 10 0.000000 21.240000 20.795000 27.633459 # Oc LIG
464 22 10 0.000000 5.668000 36.330002 2.338500 # Oc LIG
465 22 10 0.000000 18.725000 13.715000 2.338500 # Oc LIG
466 22 2 0.000000 7.353000 43.598000 24.750460 # Ca LIG
467 22 2 0.000000 20.409000 20.983000 24.750460 # Ca LIG
468 22 9 0.000000 6.908000 43.627998 2.809500 # Ob LIG
469 22 9 0.000000 19.965000 21.013000 2.809500 # Ob LIG
470 22 8 0.000000 9.602000 45.137001 2.121500 # Oa LIG
471 22 8 0.000000 22.659000 22.521999 2.121500 # Oa LIG
472 22 8 0.000000 4.721000 36.868000 25.544460 # Oa LIG
473 22 8 0.000000 17.778000 14.253000 25.544460 # Oa LIG
474 22 8 0.000000 3.455000 37.785000 2.488500 # Oa LIG
475 22 8 0.000000 16.511000 15.170000 2.488500 # Oa LIG
476 22 10 0.000000 2.515000 22.156000 2.338500 # Oc LIG
477 22 10 0.000000 15.572000 44.771000 2.338500 # Oc LIG
478 22 4 0.000000 1.314000 22.385000 2.914500 # Cc LIG
479 22 4 0.000000 14.371000 45.000000 2.914500 # Cc LIG
480 22 2 0.000000 10.794000 44.875000 1.694500 # Ca LIG
481 22 2 0.000000 23.851000 22.260000 1.694500 # Ca LIG
482 22 3 0.000000 11.924000 45.073002 2.634500 # Cb LIG
483 22 3 0.000000 24.980000 22.458000 2.634500 # Cb LIG
484 22 5 0.000000 0.159000 22.240999 2.139500 # Cd LIG
485 22 5 0.000000 13.216000 44.855999 2.139500 # Cd LIG
486 22 6 0.000000 0.271000 21.941000 1.099500 # H LIG
487 22 6 0.000000 13.328000 44.556000 1.099500 # H LIG
488 22 9 0.000000 10.990000 44.474998 0.504500 # Ob LIG
489 22 9 0.000000 24.047001 21.860001 0.504500 # Ob LIG
490 22 4 0.000000 6.070000 35.174999 2.914500 # Cc LIG
491 22 4 0.000000 19.127001 12.560000 2.914500 # Cc LIG
492 22 2 0.000000 7.967000 32.139999 1.694500 # Ca LIG
493 22 2 0.000000 21.024000 9.525000 1.694500 # Ca LIG
494 22 3 0.000000 7.231000 33.020000 2.634500 # Cb LIG
495 22 3 0.000000 20.288000 10.405000 2.634500 # Cb LIG
496 22 5 0.000000 6.773000 34.248001 2.139500 # Cd LIG
497 22 5 0.000000 19.830000 11.633000 2.139500 # Cd LIG
498 22 6 0.000000 6.977000 34.494999 1.099500 # H LIG
499 22 6 0.000000 20.033001 11.880000 1.099500 # H LIG
500 22 9 0.000000 8.216000 32.509998 0.504500 # Ob LIG
501 22 9 0.000000 21.273001 9.895000 0.504500 # Ob LIG
502 22 10 0.000000 10.541000 30.612000 27.633459 # Oc LIG
503 22 10 0.000000 23.598000 7.997000 27.633459 # Oc LIG
504 22 2 0.000000 5.090000 35.705002 25.972460 # Ca LIG
505 22 2 0.000000 18.146000 13.090000 25.972460 # Ca LIG
506 22 3 0.000000 5.826000 34.825001 25.032459 # Cb LIG
507 22 3 0.000000 18.882000 12.210000 25.032459 # Cb LIG
508 22 5 0.000000 6.284000 33.597000 25.527460 # Cd LIG
509 22 5 0.000000 19.341000 10.982000 25.527460 # Cd LIG
510 22 6 0.000000 6.080000 33.349998 26.567459 # H LIG
511 22 6 0.000000 19.136999 10.735000 26.567459 # H LIG
512 22 9 0.000000 4.841000 35.334999 27.162460 # Ob LIG
513 22 9 0.000000 17.898001 12.720000 27.162460 # Ob LIG
514 22 10 0.000000 2.515000 37.233002 0.033500 # Oc LIG
515 22 10 0.000000 15.572000 14.618000 0.033500 # Oc LIG
516 22 9 0.000000 2.067000 38.446999 24.856461 # Ob LIG
517 22 9 0.000000 15.124000 15.832000 24.856461 # Ob LIG
518 22 2 0.000000 2.263000 38.046001 2.916500 # Ca LIG
519 22 2 0.000000 15.320000 15.431000 2.916500 # Ca LIG
520 22 3 0.000000 1.133000 37.848999 1.976500 # Cb LIG
521 22 3 0.000000 14.190000 15.234000 1.976500 # Cb LIG
522 22 4 0.000000 1.314000 37.462002 0.608500 # Cc LIG
523 22 4 0.000000 14.371000 14.847000 0.608500 # Cc LIG
524 22 5 0.000000 12.898000 15.451000 2.471500 # Cd LIG
525 22 5 0.000000 25.954000 38.066002 2.471500 # Cd LIG