LAMMPS data file. CGCMM style. atom_style full generated by VMD/TopoTools v1.5 on Sun Apr 09 11:00:55 PDT 2017
 3018 atoms
 284 bonds
 0 angles
 0 dihedrals
 0 impropers
 11 atom types
 1 bond types
 0 angle types
 0 dihedral types
 0 improper types
 0.451838 52.642840  xlo xhi
 0.325101 45.523500  ylo yhi
 -0.271621 27.255620  zlo zhi

# Pair Coeffs
#
# 1  Ca
# 2  Cb
# 3  Cc
# 4  Cd
# 5  Cg
# 6  H
# 7  Oa
# 8  Ob
# 9  Oc
# 10  Og
# 11  Zn

 Masses

 1 12.011000 # Ca
 2 12.011000 # Cb
 3 12.011000 # Cc
 4 12.011000 # Cd
 5 12.011000 # Cg
 6 1.008000 # H
 7 15.999000 # Oa
 8 15.999000 # Ob
 9 15.999000 # Oc
 10 15.999000 # Og
 11 65.379997 # Zn

 Atoms

1 1 10 -0.325600 52.190678 45.197601 16.466000 # Og 
2 1 5 0.651200 52.190678 45.197601 15.306001 # Cg 
3 1 10 -0.325600 52.190678 45.197601 14.146001 # Og 
4 2 10 -0.325600 52.190678 45.197601 17.230000 # Og 
5 2 5 0.651200 52.190678 45.197601 16.070000 # Cg 
6 2 10 -0.325600 52.190678 45.197601 14.910001 # Og 
7 3 10 -0.325600 52.190678 45.197601 17.995001 # Og 
8 3 5 0.651200 52.190678 45.197601 16.834999 # Cg 
9 3 10 -0.325600 52.190678 45.197601 15.675000 # Og 
10 4 10 -0.325600 52.190678 45.197601 18.760000 # Og 
11 4 5 0.651200 52.190678 45.197601 17.600000 # Cg 
12 4 10 -0.325600 52.190678 45.197601 16.440001 # Og 
13 5 10 -0.325600 52.190678 45.197601 19.524000 # Og 
14 5 5 0.651200 52.190678 45.197601 18.364000 # Cg 
15 5 10 -0.325600 52.190678 45.197601 17.204000 # Og 
16 6 10 -0.325600 52.190678 45.197601 20.289001 # Og 
17 6 5 0.651200 52.190678 45.197601 19.129002 # Cg 
18 6 10 -0.325600 52.190678 45.197601 17.969002 # Og 
19 7 10 -0.325600 52.190678 45.197601 21.054001 # Og 
20 7 5 0.651200 52.190678 45.197601 19.894001 # Cg 
21 7 10 -0.325600 52.190678 45.197601 18.734001 # Og 
22 8 10 -0.325600 52.190678 45.197601 21.818001 # Og 
23 8 5 0.651200 52.190678 45.197601 20.658001 # Cg 
24 8 10 -0.325600 52.190678 45.197601 19.498001 # Og 
25 9 10 -0.325600 52.190678 45.197601 22.583000 # Og 
26 9 5 0.651200 52.190678 45.197601 21.423000 # Cg 
27 9 10 -0.325600 52.190678 45.197601 20.263000 # Og 
28 10 10 -0.325600 52.190678 45.197601 23.348000 # Og 
29 10 5 0.651200 52.190678 45.197601 22.188000 # Cg 
30 10 10 -0.325600 52.190678 45.197601 21.028000 # Og 
31 11 10 -0.325600 52.190678 45.197601 24.112000 # Og 
32 11 5 0.651200 52.190678 45.197601 22.952000 # Cg 
33 11 10 -0.325600 52.190678 45.197601 21.792000 # Og 
34 12 10 -0.325600 52.190678 45.197601 24.877001 # Og 
35 12 5 0.651200 52.190678 45.197601 23.717001 # Cg 
36 12 10 -0.325600 52.190678 45.197601 22.557001 # Og 
37 13 10 -0.325600 52.190678 45.197601 25.641001 # Og 
38 13 5 0.651200 52.190678 45.197601 24.481001 # Cg 
39 13 10 -0.325600 52.190678 45.197601 23.321001 # Og 
40 14 10 -0.325600 52.190678 45.197601 26.406000 # Og 
41 14 5 0.651200 52.190678 45.197601 25.246000 # Cg 
42 14 10 -0.325600 52.190678 45.197601 24.086000 # Og 
43 15 10 -0.325600 52.190678 45.197601 27.171000 # Og 
44 15 5 0.651200 52.190678 45.197601 26.011000 # Cg 
45 15 10 -0.325600 52.190678 45.197601 24.851000 # Og 
46 16 10 -0.325600 52.190678 45.197601 0.408000 # Og 
47 16 5 0.651200 52.190678 45.197601 26.775000 # Cg 
48 16 10 -0.325600 52.190678 45.197601 25.615000 # Og 
49 17 10 -0.325600 52.190678 45.197601 1.173000 # Og 
50 17 5 0.651200 52.190678 45.197601 0.013000 # Cg 
51 17 10 -0.325600 52.190678 45.197601 26.380001 # Og 
52 18 10 -0.325600 52.190678 45.197601 1.938000 # Og 
53 18 5 0.651200 52.190678 45.197601 0.778000 # Cg 
54 18 10 -0.325600 52.190678 45.197601 27.145000 # Og 
55 19 10 -0.325600 52.190678 45.197601 2.702000 # Og 
56 19 5 0.651200 52.190678 45.197601 1.542000 # Cg 
57 19 10 -0.325600 52.190678 45.197601 0.382000 # Og 
58 20 10 -0.325600 52.190678 45.197601 3.467000 # Og 
59 20 5 0.651200 52.190678 45.197601 2.307000 # Cg 
60 20 10 -0.325600 52.190678 45.197601 1.147000 # Og 
61 21 10 -0.325600 52.190678 45.197601 4.232000 # Og 
62 21 5 0.651200 52.190678 45.197601 3.072000 # Cg 
63 21 10 -0.325600 52.190678 45.197601 1.912000 # Og 
64 22 10 -0.325600 52.190678 45.197601 4.996000 # Og 
65 22 5 0.651200 52.190678 45.197601 3.836000 # Cg 
66 22 10 -0.325600 52.190678 45.197601 2.676000 # Og 
67 23 10 -0.325600 52.190678 45.197601 5.761000 # Og 
68 23 5 0.651200 52.190678 45.197601 4.601000 # Cg 
69 23 10 -0.325600 52.190678 45.197601 3.441000 # Og 
70 24 10 -0.325600 52.190678 45.197601 6.526000 # Og 
71 24 5 0.651200 52.190678 45.197601 5.366000 # Cg 
72 24 10 -0.325600 52.190678 45.197601 4.206000 # Og 
73 25 10 -0.325600 52.190678 45.197601 7.290000 # Og 
74 25 5 0.651200 52.190678 45.197601 6.130000 # Cg 
75 25 10 -0.325600 52.190678 45.197601 4.970000 # Og 
76 26 10 -0.325600 52.190678 45.197601 8.055000 # Og 
77 26 5 0.651200 52.190678 45.197601 6.895000 # Cg 
78 26 10 -0.325600 52.190678 45.197601 5.735000 # Og 
79 27 10 -0.325600 52.190678 45.197601 8.819000 # Og 
80 27 5 0.651200 52.190678 45.197601 7.659000 # Cg 
81 27 10 -0.325600 52.190678 45.197601 6.499000 # Og 
82 28 10 -0.325600 52.190678 45.197601 9.584000 # Og 
83 28 5 0.651200 52.190678 45.197601 8.424000 # Cg 
84 28 10 -0.325600 52.190678 45.197601 7.264000 # Og 
85 29 10 -0.325600 52.190678 45.197601 10.349000 # Og 
86 29 5 0.651200 52.190678 45.197601 9.189000 # Cg 
87 29 10 -0.325600 52.190678 45.197601 8.029000 # Og 
88 30 10 -0.325600 52.190678 45.197601 11.113000 # Og 
89 30 5 0.651200 52.190678 45.197601 9.953000 # Cg 
90 30 10 -0.325600 52.190678 45.197601 8.793000 # Og 
91 31 10 -0.325600 52.190678 45.197601 11.878000 # Og 
92 31 5 0.651200 52.190678 45.197601 10.718000 # Cg 
93 31 10 -0.325600 52.190678 45.197601 9.558000 # Og 
94 32 10 -0.325600 52.190678 45.197601 12.643000 # Og 
95 32 5 0.651200 52.190678 45.197601 11.483000 # Cg 
96 32 10 -0.325600 52.190678 45.197601 10.323000 # Og 
97 33 10 -0.325600 52.190678 45.197601 13.407000 # Og 
98 33 5 0.651200 52.190678 45.197601 12.247000 # Cg 
99 33 10 -0.325600 52.190678 45.197601 11.087000 # Og 
100 34 10 -0.325600 52.190678 45.197601 14.172000 # Og 
101 34 5 0.651200 52.190678 45.197601 13.012000 # Cg 
102 34 10 -0.325600 52.190678 45.197601 11.852000 # Og 
103 35 10 -0.325600 52.190678 45.197601 14.937000 # Og 
104 35 5 0.651200 52.190678 45.197601 13.777000 # Cg 
105 35 10 -0.325600 52.190678 45.197601 12.617000 # Og 
106 36 10 -0.325600 52.190678 45.197601 15.701000 # Og 
107 36 5 0.651200 52.190678 45.197601 14.541000 # Cg 
108 36 10 -0.325600 52.190678 45.197601 13.381000 # Og 
109 37 10 -0.325600 52.190678 22.599600 16.466000 # Og 
110 37 5 0.651200 52.190678 22.599600 15.306001 # Cg 
111 37 10 -0.325600 52.190678 22.599600 14.146001 # Og 
112 38 10 -0.325600 52.190678 22.599600 17.230000 # Og 
113 38 5 0.651200 52.190678 22.599600 16.070000 # Cg 
114 38 10 -0.325600 52.190678 22.599600 14.910001 # Og 
115 39 10 -0.325600 52.190678 22.599600 17.995001 # Og 
116 39 5 0.651200 52.190678 22.599600 16.834999 # Cg 
117 39 10 -0.325600 52.190678 22.599600 15.675000 # Og 
118 40 10 -0.325600 52.190678 22.599600 18.760000 # Og 
119 40 5 0.651200 52.190678 22.599600 17.600000 # Cg 
120 40 10 -0.325600 52.190678 22.599600 16.440001 # Og 
121 41 10 -0.325600 52.190678 22.599600 19.524000 # Og 
122 41 5 0.651200 52.190678 22.599600 18.364000 # Cg 
123 41 10 -0.325600 52.190678 22.599600 17.204000 # Og 
124 42 10 -0.325600 52.190678 22.599600 20.289001 # Og 
125 42 5 0.651200 52.190678 22.599600 19.129002 # Cg 
126 42 10 -0.325600 52.190678 22.599600 17.969002 # Og 
127 43 10 -0.325600 52.190678 22.599600 21.054001 # Og 
128 43 5 0.651200 52.190678 22.599600 19.894001 # Cg 
129 43 10 -0.325600 52.190678 22.599600 18.734001 # Og 
130 44 10 -0.325600 52.190678 22.599600 21.818001 # Og 
131 44 5 0.651200 52.190678 22.599600 20.658001 # Cg 
132 44 10 -0.325600 52.190678 22.599600 19.498001 # Og 
133 45 10 -0.325600 52.190678 22.599600 22.583000 # Og 
134 45 5 0.651200 52.190678 22.599600 21.423000 # Cg 
135 45 10 -0.325600 52.190678 22.599600 20.263000 # Og 
136 46 10 -0.325600 52.190678 22.599600 23.348000 # Og 
137 46 5 0.651200 52.190678 22.599600 22.188000 # Cg 
138 46 10 -0.325600 52.190678 22.599600 21.028000 # Og 
139 47 10 -0.325600 52.190678 22.599600 24.112000 # Og 
140 47 5 0.651200 52.190678 22.599600 22.952000 # Cg 
141 47 10 -0.325600 52.190678 22.599600 21.792000 # Og 
142 48 10 -0.325600 52.190678 22.599600 24.877001 # Og 
143 48 5 0.651200 52.190678 22.599600 23.717001 # Cg 
144 48 10 -0.325600 52.190678 22.599600 22.557001 # Og 
145 49 10 -0.325600 52.190678 22.599600 25.641001 # Og 
146 49 5 0.651200 52.190678 22.599600 24.481001 # Cg 
147 49 10 -0.325600 52.190678 22.599600 23.321001 # Og 
148 50 10 -0.325600 52.190678 22.599600 26.406000 # Og 
149 50 5 0.651200 52.190678 22.599600 25.246000 # Cg 
150 50 10 -0.325600 52.190678 22.599600 24.086000 # Og 
151 51 10 -0.325600 52.190678 22.599600 27.171000 # Og 
152 51 5 0.651200 52.190678 22.599600 26.011000 # Cg 
153 51 10 -0.325600 52.190678 22.599600 24.851000 # Og 
154 52 10 -0.325600 52.190678 22.599600 0.408000 # Og 
155 52 5 0.651200 52.190678 22.599600 26.775000 # Cg 
156 52 10 -0.325600 52.190678 22.599600 25.615000 # Og 
157 53 10 -0.325600 52.190678 22.599600 1.173000 # Og 
158 53 5 0.651200 52.190678 22.599600 0.013000 # Cg 
159 53 10 -0.325600 52.190678 22.599600 26.380001 # Og 
160 54 10 -0.325600 52.190678 22.599600 1.938000 # Og 
161 54 5 0.651200 52.190678 22.599600 0.778000 # Cg 
162 54 10 -0.325600 52.190678 22.599600 27.145000 # Og 
163 55 10 -0.325600 52.190678 22.599600 2.702000 # Og 
164 55 5 0.651200 52.190678 22.599600 1.542000 # Cg 
165 55 10 -0.325600 52.190678 22.599600 0.382000 # Og 
166 56 10 -0.325600 52.190678 22.599600 3.467000 # Og 
167 56 5 0.651200 52.190678 22.599600 2.307000 # Cg 
168 56 10 -0.325600 52.190678 22.599600 1.147000 # Og 
169 57 10 -0.325600 52.190678 22.599600 4.232000 # Og 
170 57 5 0.651200 52.190678 22.599600 3.072000 # Cg 
171 57 10 -0.325600 52.190678 22.599600 1.912000 # Og 
172 58 10 -0.325600 52.190678 22.599600 4.996000 # Og 
173 58 5 0.651200 52.190678 22.599600 3.836000 # Cg 
174 58 10 -0.325600 52.190678 22.599600 2.676000 # Og 
175 59 10 -0.325600 52.190678 22.599600 5.761000 # Og 
176 59 5 0.651200 52.190678 22.599600 4.601000 # Cg 
177 59 10 -0.325600 52.190678 22.599600 3.441000 # Og 
178 60 10 -0.325600 52.190678 22.599600 6.526000 # Og 
179 60 5 0.651200 52.190678 22.599600 5.366000 # Cg 
180 60 10 -0.325600 52.190678 22.599600 4.206000 # Og 
181 61 10 -0.325600 52.190678 22.599600 7.290000 # Og 
182 61 5 0.651200 52.190678 22.599600 6.130000 # Cg 
183 61 10 -0.325600 52.190678 22.599600 4.970000 # Og 
184 62 10 -0.325600 52.190678 22.599600 8.055000 # Og 
185 62 5 0.651200 52.190678 22.599600 6.895000 # Cg 
186 62 10 -0.325600 52.190678 22.599600 5.735000 # Og 
187 63 10 -0.325600 52.190678 22.599600 8.819000 # Og 
188 63 5 0.651200 52.190678 22.599600 7.659000 # Cg 
189 63 10 -0.325600 52.190678 22.599600 6.499000 # Og 
190 64 10 -0.325600 52.190678 22.599600 9.584000 # Og 
191 64 5 0.651200 52.190678 22.599600 8.424000 # Cg 
192 64 10 -0.325600 52.190678 22.599600 7.264000 # Og 
193 65 10 -0.325600 52.190678 22.599600 10.349000 # Og 
194 65 5 0.651200 52.190678 22.599600 9.189000 # Cg 
195 65 10 -0.325600 52.190678 22.599600 8.029000 # Og 
196 66 10 -0.325600 52.190678 22.599600 11.113000 # Og 
197 66 5 0.651200 52.190678 22.599600 9.953000 # Cg 
198 66 10 -0.325600 52.190678 22.599600 8.793000 # Og 
199 67 10 -0.325600 52.190678 22.599600 11.878000 # Og 
200 67 5 0.651200 52.190678 22.599600 10.718000 # Cg 
201 67 10 -0.325600 52.190678 22.599600 9.558000 # Og 
202 68 10 -0.325600 52.190678 22.599600 12.643000 # Og 
203 68 5 0.651200 52.190678 22.599600 11.483000 # Cg 
204 68 10 -0.325600 52.190678 22.599600 10.323000 # Og 
205 69 10 -0.325600 52.190678 22.599600 13.407000 # Og 
206 69 5 0.651200 52.190678 22.599600 12.247000 # Cg 
207 69 10 -0.325600 52.190678 22.599600 11.087000 # Og 
208 70 10 -0.325600 52.190678 22.599600 14.172000 # Og 
209 70 5 0.651200 52.190678 22.599600 13.012000 # Cg 
210 70 10 -0.325600 52.190678 22.599600 11.852000 # Og 
211 71 10 -0.325600 52.190678 22.599600 14.937000 # Og 
212 71 5 0.651200 52.190678 22.599600 13.777000 # Cg 
213 71 10 -0.325600 52.190678 22.599600 12.617000 # Og 
214 72 10 -0.325600 52.190678 22.599600 15.701000 # Og 
215 72 5 0.651200 52.190678 22.599600 14.541000 # Cg 
216 72 10 -0.325600 52.190678 22.599600 13.381000 # Og 
217 73 10 -0.325600 26.095676 45.197601 16.466000 # Og 
218 73 5 0.651200 26.095676 45.197601 15.306001 # Cg 
219 73 10 -0.325600 26.095676 45.197601 14.146001 # Og 
220 74 10 -0.325600 26.095676 45.197601 17.230000 # Og 
221 74 5 0.651200 26.095676 45.197601 16.070000 # Cg 
222 74 10 -0.325600 26.095676 45.197601 14.910001 # Og 
223 75 10 -0.325600 26.095676 45.197601 17.995001 # Og 
224 75 5 0.651200 26.095676 45.197601 16.834999 # Cg 
225 75 10 -0.325600 26.095676 45.197601 15.675000 # Og 
226 76 10 -0.325600 26.095676 45.197601 18.760000 # Og 
227 76 5 0.651200 26.095676 45.197601 17.600000 # Cg 
228 76 10 -0.325600 26.095676 45.197601 16.440001 # Og 
229 77 10 -0.325600 26.095676 45.197601 19.524000 # Og 
230 77 5 0.651200 26.095676 45.197601 18.364000 # Cg 
231 77 10 -0.325600 26.095676 45.197601 17.204000 # Og 
232 78 10 -0.325600 26.095676 45.197601 20.289001 # Og 
233 78 5 0.651200 26.095676 45.197601 19.129002 # Cg 
234 78 10 -0.325600 26.095676 45.197601 17.969002 # Og 
235 79 10 -0.325600 26.095676 45.197601 21.054001 # Og 
236 79 5 0.651200 26.095676 45.197601 19.894001 # Cg 
237 79 10 -0.325600 26.095676 45.197601 18.734001 # Og 
238 80 10 -0.325600 26.095676 45.197601 21.818001 # Og 
239 80 5 0.651200 26.095676 45.197601 20.658001 # Cg 
240 80 10 -0.325600 26.095676 45.197601 19.498001 # Og 
241 81 10 -0.325600 26.095676 45.197601 22.583000 # Og 
242 81 5 0.651200 26.095676 45.197601 21.423000 # Cg 
243 81 10 -0.325600 26.095676 45.197601 20.263000 # Og 
244 82 10 -0.325600 26.095676 45.197601 23.348000 # Og 
245 82 5 0.651200 26.095676 45.197601 22.188000 # Cg 
246 82 10 -0.325600 26.095676 45.197601 21.028000 # Og 
247 83 10 -0.325600 26.095676 45.197601 24.112000 # Og 
248 83 5 0.651200 26.095676 45.197601 22.952000 # Cg 
249 83 10 -0.325600 26.095676 45.197601 21.792000 # Og 
250 84 10 -0.325600 26.095676 45.197601 24.877001 # Og 
251 84 5 0.651200 26.095676 45.197601 23.717001 # Cg 
252 84 10 -0.325600 26.095676 45.197601 22.557001 # Og 
253 85 10 -0.325600 26.095676 45.197601 25.641001 # Og 
254 85 5 0.651200 26.095676 45.197601 24.481001 # Cg 
255 85 10 -0.325600 26.095676 45.197601 23.321001 # Og 
256 86 10 -0.325600 26.095676 45.197601 26.406000 # Og 
257 86 5 0.651200 26.095676 45.197601 25.246000 # Cg 
258 86 10 -0.325600 26.095676 45.197601 24.086000 # Og 
259 87 10 -0.325600 26.095676 45.197601 27.171000 # Og 
260 87 5 0.651200 26.095676 45.197601 26.011000 # Cg 
261 87 10 -0.325600 26.095676 45.197601 24.851000 # Og 
262 88 10 -0.325600 26.095676 45.197601 0.408000 # Og 
263 88 5 0.651200 26.095676 45.197601 26.775000 # Cg 
264 88 10 -0.325600 26.095676 45.197601 25.615000 # Og 
265 89 10 -0.325600 26.095676 45.197601 1.173000 # Og 
266 89 5 0.651200 26.095676 45.197601 0.013000 # Cg 
267 89 10 -0.325600 26.095676 45.197601 26.380001 # Og 
268 90 10 -0.325600 26.095676 45.197601 1.938000 # Og 
269 90 5 0.651200 26.095676 45.197601 0.778000 # Cg 
270 90 10 -0.325600 26.095676 45.197601 27.145000 # Og 
271 91 10 -0.325600 26.095676 45.197601 2.702000 # Og 
272 91 5 0.651200 26.095676 45.197601 1.542000 # Cg 
273 91 10 -0.325600 26.095676 45.197601 0.382000 # Og 
274 92 10 -0.325600 26.095676 45.197601 3.467000 # Og 
275 92 5 0.651200 26.095676 45.197601 2.307000 # Cg 
276 92 10 -0.325600 26.095676 45.197601 1.147000 # Og 
277 93 10 -0.325600 26.095676 45.197601 4.232000 # Og 
278 93 5 0.651200 26.095676 45.197601 3.072000 # Cg 
279 93 10 -0.325600 26.095676 45.197601 1.912000 # Og 
280 94 10 -0.325600 26.095676 45.197601 4.996000 # Og 
281 94 5 0.651200 26.095676 45.197601 3.836000 # Cg 
282 94 10 -0.325600 26.095676 45.197601 2.676000 # Og 
283 95 10 -0.325600 26.095676 45.197601 5.761000 # Og 
284 95 5 0.651200 26.095676 45.197601 4.601000 # Cg 
285 95 10 -0.325600 26.095676 45.197601 3.441000 # Og 
286 96 10 -0.325600 26.095676 45.197601 6.526000 # Og 
287 96 5 0.651200 26.095676 45.197601 5.366000 # Cg 
288 96 10 -0.325600 26.095676 45.197601 4.206000 # Og 
289 97 10 -0.325600 26.095676 45.197601 7.290000 # Og 
290 97 5 0.651200 26.095676 45.197601 6.130000 # Cg 
291 97 10 -0.325600 26.095676 45.197601 4.970000 # Og 
292 98 10 -0.325600 26.095676 45.197601 8.055000 # Og 
293 98 5 0.651200 26.095676 45.197601 6.895000 # Cg 
294 98 10 -0.325600 26.095676 45.197601 5.735000 # Og 
295 99 10 -0.325600 26.095676 45.197601 8.819000 # Og 
296 99 5 0.651200 26.095676 45.197601 7.659000 # Cg 
297 99 10 -0.325600 26.095676 45.197601 6.499000 # Og 
298 100 10 -0.325600 26.095676 45.197601 9.584000 # Og 
299 100 5 0.651200 26.095676 45.197601 8.424000 # Cg 
300 100 10 -0.325600 26.095676 45.197601 7.264000 # Og 
301 101 10 -0.325600 26.095676 45.197601 10.349000 # Og 
302 101 5 0.651200 26.095676 45.197601 9.189000 # Cg 
303 101 10 -0.325600 26.095676 45.197601 8.029000 # Og 
304 102 10 -0.325600 26.095676 45.197601 11.113000 # Og 
305 102 5 0.651200 26.095676 45.197601 9.953000 # Cg 
306 102 10 -0.325600 26.095676 45.197601 8.793000 # Og 
307 103 10 -0.325600 26.095676 45.197601 11.878000 # Og 
308 103 5 0.651200 26.095676 45.197601 10.718000 # Cg 
309 103 10 -0.325600 26.095676 45.197601 9.558000 # Og 
310 104 10 -0.325600 26.095676 45.197601 12.643000 # Og 
311 104 5 0.651200 26.095676 45.197601 11.483000 # Cg 
312 104 10 -0.325600 26.095676 45.197601 10.323000 # Og 
313 105 10 -0.325600 26.095676 45.197601 13.407000 # Og 
314 105 5 0.651200 26.095676 45.197601 12.247000 # Cg 
315 105 10 -0.325600 26.095676 45.197601 11.087000 # Og 
316 106 10 -0.325600 26.095676 45.197601 14.172000 # Og 
317 106 5 0.651200 26.095676 45.197601 13.012000 # Cg 
318 106 10 -0.325600 26.095676 45.197601 11.852000 # Og 
319 107 10 -0.325600 26.095676 45.197601 14.937000 # Og 
320 107 5 0.651200 26.095676 45.197601 13.777000 # Cg 
321 107 10 -0.325600 26.095676 45.197601 12.617000 # Og 
322 108 10 -0.325600 26.095676 45.197601 15.701000 # Og 
323 108 5 0.651200 26.095676 45.197601 14.541000 # Cg 
324 108 10 -0.325600 26.095676 45.197601 13.381000 # Og 
325 109 10 -0.325600 26.095676 22.599600 16.466000 # Og 
326 109 5 0.651200 26.095676 22.599600 15.306001 # Cg 
327 109 10 -0.325600 26.095676 22.599600 14.146001 # Og 
328 110 10 -0.325600 26.095676 22.599600 17.230000 # Og 
329 110 5 0.651200 26.095676 22.599600 16.070000 # Cg 
330 110 10 -0.325600 26.095676 22.599600 14.910001 # Og 
331 111 10 -0.325600 26.095676 22.599600 17.995001 # Og 
332 111 5 0.651200 26.095676 22.599600 16.834999 # Cg 
333 111 10 -0.325600 26.095676 22.599600 15.675000 # Og 
334 112 10 -0.325600 26.095676 22.599600 18.760000 # Og 
335 112 5 0.651200 26.095676 22.599600 17.600000 # Cg 
336 112 10 -0.325600 26.095676 22.599600 16.440001 # Og 
337 113 10 -0.325600 26.095676 22.599600 19.524000 # Og 
338 113 5 0.651200 26.095676 22.599600 18.364000 # Cg 
339 113 10 -0.325600 26.095676 22.599600 17.204000 # Og 
340 114 10 -0.325600 26.095676 22.599600 20.289001 # Og 
341 114 5 0.651200 26.095676 22.599600 19.129002 # Cg 
342 114 10 -0.325600 26.095676 22.599600 17.969002 # Og 
343 115 10 -0.325600 26.095676 22.599600 21.054001 # Og 
344 115 5 0.651200 26.095676 22.599600 19.894001 # Cg 
345 115 10 -0.325600 26.095676 22.599600 18.734001 # Og 
346 116 10 -0.325600 26.095676 22.599600 21.818001 # Og 
347 116 5 0.651200 26.095676 22.599600 20.658001 # Cg 
348 116 10 -0.325600 26.095676 22.599600 19.498001 # Og 
349 117 10 -0.325600 26.095676 22.599600 22.583000 # Og 
350 117 5 0.651200 26.095676 22.599600 21.423000 # Cg 
351 117 10 -0.325600 26.095676 22.599600 20.263000 # Og 
352 118 10 -0.325600 26.095676 22.599600 23.348000 # Og 
353 118 5 0.651200 26.095676 22.599600 22.188000 # Cg 
354 118 10 -0.325600 26.095676 22.599600 21.028000 # Og 
355 119 10 -0.325600 26.095676 22.599600 24.112000 # Og 
356 119 5 0.651200 26.095676 22.599600 22.952000 # Cg 
357 119 10 -0.325600 26.095676 22.599600 21.792000 # Og 
358 120 10 -0.325600 26.095676 22.599600 24.877001 # Og 
359 120 5 0.651200 26.095676 22.599600 23.717001 # Cg 
360 120 10 -0.325600 26.095676 22.599600 22.557001 # Og 
361 121 10 -0.325600 26.095676 22.599600 25.641001 # Og 
362 121 5 0.651200 26.095676 22.599600 24.481001 # Cg 
363 121 10 -0.325600 26.095676 22.599600 23.321001 # Og 
364 122 10 -0.325600 26.095676 22.599600 26.406000 # Og 
365 122 5 0.651200 26.095676 22.599600 25.246000 # Cg 
366 122 10 -0.325600 26.095676 22.599600 24.086000 # Og 
367 123 10 -0.325600 26.095676 22.599600 27.171000 # Og 
368 123 5 0.651200 26.095676 22.599600 26.011000 # Cg 
369 123 10 -0.325600 26.095676 22.599600 24.851000 # Og 
370 124 10 -0.325600 26.095676 22.599600 0.408000 # Og 
371 124 5 0.651200 26.095676 22.599600 26.775000 # Cg 
372 124 10 -0.325600 26.095676 22.599600 25.615000 # Og 
373 125 10 -0.325600 26.095676 22.599600 1.173000 # Og 
374 125 5 0.651200 26.095676 22.599600 0.013000 # Cg 
375 125 10 -0.325600 26.095676 22.599600 26.380001 # Og 
376 126 10 -0.325600 26.095676 22.599600 1.938000 # Og 
377 126 5 0.651200 26.095676 22.599600 0.778000 # Cg 
378 126 10 -0.325600 26.095676 22.599600 27.145000 # Og 
379 127 10 -0.325600 26.095676 22.599600 2.702000 # Og 
380 127 5 0.651200 26.095676 22.599600 1.542000 # Cg 
381 127 10 -0.325600 26.095676 22.599600 0.382000 # Og 
382 128 10 -0.325600 26.095676 22.599600 3.467000 # Og 
383 128 5 0.651200 26.095676 22.599600 2.307000 # Cg 
384 128 10 -0.325600 26.095676 22.599600 1.147000 # Og 
385 129 10 -0.325600 26.095676 22.599600 4.232000 # Og 
386 129 5 0.651200 26.095676 22.599600 3.072000 # Cg 
387 129 10 -0.325600 26.095676 22.599600 1.912000 # Og 
388 130 10 -0.325600 26.095676 22.599600 4.996000 # Og 
389 130 5 0.651200 26.095676 22.599600 3.836000 # Cg 
390 130 10 -0.325600 26.095676 22.599600 2.676000 # Og 
391 131 10 -0.325600 26.095676 22.599600 5.761000 # Og 
392 131 5 0.651200 26.095676 22.599600 4.601000 # Cg 
393 131 10 -0.325600 26.095676 22.599600 3.441000 # Og 
394 132 10 -0.325600 26.095676 22.599600 6.526000 # Og 
395 132 5 0.651200 26.095676 22.599600 5.366000 # Cg 
396 132 10 -0.325600 26.095676 22.599600 4.206000 # Og 
397 133 10 -0.325600 26.095676 22.599600 7.290000 # Og 
398 133 5 0.651200 26.095676 22.599600 6.130000 # Cg 
399 133 10 -0.325600 26.095676 22.599600 4.970000 # Og 
400 134 10 -0.325600 26.095676 22.599600 8.055000 # Og 
401 134 5 0.651200 26.095676 22.599600 6.895000 # Cg 
402 134 10 -0.325600 26.095676 22.599600 5.735000 # Og 
403 135 10 -0.325600 26.095676 22.599600 8.819000 # Og 
404 135 5 0.651200 26.095676 22.599600 7.659000 # Cg 
405 135 10 -0.325600 26.095676 22.599600 6.499000 # Og 
406 136 10 -0.325600 26.095676 22.599600 9.584000 # Og 
407 136 5 0.651200 26.095676 22.599600 8.424000 # Cg 
408 136 10 -0.325600 26.095676 22.599600 7.264000 # Og 
409 137 10 -0.325600 26.095676 22.599600 10.349000 # Og 
410 137 5 0.651200 26.095676 22.599600 9.189000 # Cg 
411 137 10 -0.325600 26.095676 22.599600 8.029000 # Og 
412 138 10 -0.325600 26.095676 22.599600 11.113000 # Og 
413 138 5 0.651200 26.095676 22.599600 9.953000 # Cg 
414 138 10 -0.325600 26.095676 22.599600 8.793000 # Og 
415 139 10 -0.325600 26.095676 22.599600 11.878000 # Og 
416 139 5 0.651200 26.095676 22.599600 10.718000 # Cg 
417 139 10 -0.325600 26.095676 22.599600 9.558000 # Og 
418 140 10 -0.325600 26.095676 22.599600 12.643000 # Og 
419 140 5 0.651200 26.095676 22.599600 11.483000 # Cg 
420 140 10 -0.325600 26.095676 22.599600 10.323000 # Og 
421 141 10 -0.325600 26.095676 22.599600 13.407000 # Og 
422 141 5 0.651200 26.095676 22.599600 12.247000 # Cg 
423 141 10 -0.325600 26.095676 22.599600 11.087000 # Og 
424 142 10 -0.325600 26.095676 22.599600 14.172000 # Og 
425 142 5 0.651200 26.095676 22.599600 13.012000 # Cg 
426 142 10 -0.325600 26.095676 22.599600 11.852000 # Og 
427 143 11 1.209000 5.331000 7.994000 21.569241 # Zn LIG
428 143 11 1.209000 18.378000 30.594000 21.569241 # Zn LIG
429 143 11 1.209000 31.426001 7.994000 21.569241 # Zn LIG
430 143 11 1.209000 44.473999 30.594000 21.569241 # Zn LIG
431 143 1 0.841000 5.724000 9.170000 18.988241 # Ca LIG
432 143 1 0.841000 18.771999 31.768999 18.988241 # Ca LIG
433 143 1 0.841000 31.819000 9.170000 18.988241 # Ca LIG
434 143 1 0.841000 44.867001 31.768999 18.988241 # Ca LIG
435 143 2 -0.298000 6.104000 10.244000 18.040241 # Cb LIG
436 143 2 -0.298000 19.150999 32.842999 18.040241 # Cb LIG
437 143 2 -0.298000 32.199001 10.244000 18.040241 # Cb LIG
438 143 2 -0.298000 45.247002 32.842999 18.040241 # Cb LIG
439 143 4 -0.170000 6.937000 11.262000 18.520241 # Cd LIG
440 143 4 -0.170000 19.983999 33.861000 18.520241 # Cd LIG
441 143 4 -0.170000 33.032001 11.262000 18.520241 # Cd LIG
442 143 4 -0.170000 46.080002 33.861000 18.520241 # Cd LIG
443 143 6 0.172000 7.258000 11.221000 19.558241 # H LIG
444 143 6 0.172000 20.306000 33.820000 19.558241 # H LIG
445 143 6 0.172000 33.353001 11.221000 19.558241 # H LIG
446 143 6 0.172000 46.401001 33.820000 19.558241 # H LIG
447 143 8 -0.671000 6.191000 9.168000 20.176241 # Ob LIG
448 143 8 -0.671000 19.238001 31.767000 20.176241 # Ob LIG
449 143 8 -0.671000 32.285999 9.168000 20.176241 # Ob LIG
450 143 8 -0.671000 45.334000 31.767000 20.176241 # Ob LIG
451 143 7 -0.719000 4.915000 8.263000 18.567242 # Oa LIG
452 143 7 -0.719000 17.962999 30.862000 18.567242 # Oa LIG
453 143 7 -0.719000 31.010000 8.263000 18.567242 # Oa LIG
454 143 7 -0.719000 44.057999 30.862000 18.567242 # Oa LIG
455 143 9 -0.740000 8.191000 13.251000 18.306240 # Oc LIG
456 143 9 -0.740000 21.238001 35.849998 18.306240 # Oc LIG
457 143 9 -0.740000 34.285999 13.251000 18.306240 # Oc LIG
458 143 9 -0.740000 47.334000 35.849998 18.306240 # Oc LIG
459 143 11 1.209000 4.258000 6.452000 19.275242 # Zn LIG
460 143 11 1.209000 17.306000 29.052000 19.275242 # Zn LIG
461 143 11 1.209000 30.353001 6.452000 19.275242 # Zn LIG
462 143 11 1.209000 43.401001 29.052000 19.275242 # Zn LIG
463 143 11 1.209000 3.459000 8.152000 23.863241 # Zn LIG
464 143 11 1.209000 16.507000 30.750999 23.863241 # Zn LIG
465 143 11 1.209000 29.554001 8.152000 23.863241 # Zn LIG
466 143 11 1.209000 42.602001 30.750999 23.863241 # Zn LIG
467 143 11 1.209000 7.717000 14.605000 19.721241 # Zn LIG
468 143 11 1.209000 20.764999 37.203999 19.721241 # Zn LIG
469 143 11 1.209000 33.812000 14.605000 19.721241 # Zn LIG
470 143 11 1.209000 46.860001 37.203999 19.721241 # Zn LIG
471 143 7 -0.719000 4.698000 6.678000 23.155241 # Oa LIG
472 143 7 -0.719000 17.746000 29.277000 23.155241 # Oa LIG
473 143 7 -0.719000 30.794001 6.678000 23.155241 # Oa LIG
474 143 7 -0.719000 43.841000 29.277000 23.155241 # Oa LIG
475 143 7 -0.719000 3.434000 7.658000 20.861240 # Oa LIG
476 143 7 -0.719000 16.482000 30.257000 20.861240 # Oa LIG
477 143 7 -0.719000 29.530001 7.658000 20.861240 # Oa LIG
478 143 7 -0.719000 42.577000 30.257000 20.861240 # Oa LIG
479 143 9 -0.740000 4.857000 9.348000 22.984241 # Oc LIG
480 143 9 -0.740000 17.905001 31.947001 22.984241 # Oc LIG
481 143 9 -0.740000 30.952000 9.348000 22.984241 # Oc LIG
482 143 9 -0.740000 44.000000 31.947001 22.984241 # Oc LIG
483 143 9 -0.740000 5.667000 6.186000 20.690241 # Oc LIG
484 143 9 -0.740000 18.715000 28.785000 20.690241 # Oc LIG
485 143 9 -0.740000 31.763000 6.186000 20.690241 # Oc LIG
486 143 9 -0.740000 44.810001 28.785000 20.690241 # Oc LIG
487 143 3 0.376000 5.670000 10.272000 23.559240 # Cc LIG
488 143 3 0.376000 18.718000 32.870998 23.559240 # Cc LIG
489 143 3 0.376000 31.764999 10.272000 23.559240 # Cc LIG
490 143 3 0.376000 44.813000 32.870998 23.559240 # Cc LIG
491 143 1 0.841000 7.324000 13.429000 22.302240 # Ca LIG
492 143 1 0.841000 20.371000 36.028000 22.302240 # Ca LIG
493 143 1 0.841000 33.418999 13.429000 22.302240 # Ca LIG
494 143 1 0.841000 46.466999 36.028000 22.302240 # Ca LIG
495 143 2 -0.298000 6.944000 12.355000 23.250240 # Cb LIG
496 143 2 -0.298000 19.992001 34.953999 23.250240 # Cb LIG
497 143 2 -0.298000 33.039001 12.355000 23.250240 # Cb LIG
498 143 2 -0.298000 46.087002 34.953999 23.250240 # Cb LIG
499 143 3 0.376000 7.378000 12.327000 17.730240 # Cc LIG
500 143 3 0.376000 20.424999 34.925999 17.730240 # Cc LIG
501 143 3 0.376000 33.473000 12.327000 17.730240 # Cc LIG
502 143 3 0.376000 46.521000 34.925999 17.730240 # Cc LIG
503 143 4 -0.170000 6.111000 11.337000 22.770241 # Cd LIG
504 143 4 -0.170000 19.159000 33.936001 22.770241 # Cd LIG
505 143 4 -0.170000 32.206001 11.337000 22.770241 # Cd LIG
506 143 4 -0.170000 45.254002 33.936001 22.770241 # Cd LIG
507 143 6 0.172000 5.790000 11.379000 21.732241 # H LIG
508 143 6 0.172000 18.837000 33.978001 21.732241 # H LIG
509 143 6 0.172000 31.885000 11.379000 21.732241 # H LIG
510 143 6 0.172000 44.932999 33.978001 21.732241 # H LIG
511 143 8 -0.671000 6.857000 13.431000 21.113241 # Ob LIG
512 143 8 -0.671000 19.905001 36.029999 21.113241 # Ob LIG
513 143 8 -0.671000 32.952000 13.431000 21.113241 # Ob LIG
514 143 8 -0.671000 46.000000 36.029999 21.113241 # Ob LIG
515 143 7 -0.719000 8.133000 14.336000 22.723240 # Oa LIG
516 143 7 -0.719000 21.180000 36.936001 22.723240 # Oa LIG
517 143 7 -0.719000 34.228001 14.336000 22.723240 # Oa LIG
518 143 7 -0.719000 47.276001 36.936001 22.723240 # Oa LIG
519 143 11 1.209000 8.790000 16.146999 22.015240 # Zn LIG
520 143 11 1.209000 21.837000 38.745998 22.015240 # Zn LIG
521 143 11 1.209000 34.884998 16.146999 22.015240 # Zn LIG
522 143 11 1.209000 47.932999 38.745998 22.015240 # Zn LIG
523 143 11 1.209000 9.589000 14.447000 17.427240 # Zn LIG
524 143 11 1.209000 22.636000 37.046001 17.427240 # Zn LIG
525 143 11 1.209000 35.683998 14.447000 17.427240 # Zn LIG
526 143 11 1.209000 48.731998 37.046001 17.427240 # Zn LIG
527 143 7 -0.719000 8.349000 15.921000 18.135241 # Oa LIG