LAMMPS data file. CGCMM style. atom_style full generated by VMD/TopoTools v1.5 on Thu Sep 29 15:41:01 CEST 2016
 824 atoms
 384 bonds
 576 angles
 768 dihedrals
 192 impropers
 10 atom types
 5 bond types
 7 angle types
 8 dihedral types
 3 improper types
 0.853500 26.685501  xlo xhi
 1.717500 27.549501  ylo yhi
 -0.347501 25.484500  zlo zhi

# Pair Coeffs
#
# 1  C
# 2  C1
# 3  C2
# 4  C3
# 5  CH
# 6  CH3
# 7  H1
# 8  O1
# 9  O2
# 10  Zn1

# Bond Coeffs
#
# 1  C1-C2
# 2  C1-O2
# 3  C2-C3
# 4  C3-C3
# 5  C3-H1

# Angle Coeffs
#
# 1  C1-C2-C3
# 2  C2-C1-O2
# 3  C2-C3-C3
# 4  C2-C3-H1
# 5  C3-C2-C3
# 6  C3-C3-H1
# 7  O2-C1-O2

# Dihedral Coeffs
#
# 1  C1-C2-C3-C3
# 2  C1-C2-C3-H1
# 3  C2-C3-C3-C2
# 4  C2-C3-C3-H1
# 5  C3-C2-C3-C3
# 6  C3-C2-C3-H1
# 7  H1-C3-C3-H1
# 8  O2-C1-C2-C3

# Improper Coeffs
#
# 1  C1-C3-C2-C3
# 2  C2-C3-C3-H1
# 3  C2-O2-C1-O2

 Masses

 1 12.011000 # C
 2 12.011000 # C1
 3 12.011000 # C2
 4 12.011000 # C3
 5 13.019000 # CH
 6 15.035000 # CH3
 7 1.008000 # H1
 8 15.999000 # O1
 9 15.999000 # O2
 10 65.382004 # Zn1

 Atoms

1 1 1 0.000000 25.832001 27.232000 13.910001 # C 
2 1 5 0.000000 27.044001 26.532001 13.910001 # CH 
3 1 5 0.000000 27.044001 25.132000 13.910001 # CH 
4 1 1 0.000000 25.832001 24.432001 13.910001 # C 
5 1 5 0.000000 24.620001 25.132000 13.910001 # CH 
6 1 5 0.000000 24.620001 26.532001 13.910001 # CH 
7 1 6 0.000000 25.832001 28.772001 13.910001 # CH3 
8 1 6 0.000000 25.832001 22.892002 13.910001 # CH3 
9 2 1 0.000000 25.832001 27.232000 15.897000 # C 
10 2 5 0.000000 27.044001 26.532001 15.897000 # CH 
11 2 5 0.000000 27.044001 25.132000 15.897000 # CH 
12 2 1 0.000000 25.832001 24.432001 15.897000 # C 
13 2 5 0.000000 24.620001 25.132000 15.897000 # CH 
14 2 5 0.000000 24.620001 26.532001 15.897000 # CH 
15 2 6 0.000000 25.832001 28.772001 15.897000 # CH3 
16 2 6 0.000000 25.832001 22.892002 15.897000 # CH3 
17 3 1 0.000000 25.832001 27.232000 17.884001 # C 
18 3 5 0.000000 27.044001 26.532001 17.884001 # CH 
19 3 5 0.000000 27.044001 25.132000 17.884001 # CH 
20 3 1 0.000000 25.832001 24.432001 17.884001 # C 
21 3 5 0.000000 24.620001 25.132000 17.884001 # CH 
22 3 5 0.000000 24.620001 26.532001 17.884001 # CH 
23 3 6 0.000000 25.832001 28.772001 17.884001 # CH3 
24 3 6 0.000000 25.832001 22.892002 17.884001 # CH3 
25 4 1 0.000000 25.832001 27.232000 19.871000 # C 
26 4 5 0.000000 27.044001 26.532001 19.871000 # CH 
27 4 5 0.000000 27.044001 25.132000 19.871000 # CH 
28 4 1 0.000000 25.832001 24.432001 19.871000 # C 
29 4 5 0.000000 24.620001 25.132000 19.871000 # CH 
30 4 5 0.000000 24.620001 26.532001 19.871000 # CH 
31 4 6 0.000000 25.832001 28.772001 19.871000 # CH3 
32 4 6 0.000000 25.832001 22.892002 19.871000 # CH3 
33 5 1 0.000000 25.832001 27.232000 21.858002 # C 
34 5 5 0.000000 27.044001 26.532001 21.858002 # CH 
35 5 5 0.000000 27.044001 25.132000 21.858002 # CH 
36 5 1 0.000000 25.832001 24.432001 21.858002 # C 
37 5 5 0.000000 24.620001 25.132000 21.858002 # CH 
38 5 5 0.000000 24.620001 26.532001 21.858002 # CH 
39 5 6 0.000000 25.832001 28.772001 21.858002 # CH3 
40 5 6 0.000000 25.832001 22.892002 21.858002 # CH3 
41 6 1 0.000000 25.832001 27.232000 23.845001 # C 
42 6 5 0.000000 27.044001 26.532001 23.845001 # CH 
43 6 5 0.000000 27.044001 25.132000 23.845001 # CH 
44 6 1 0.000000 25.832001 24.432001 23.845001 # C 
45 6 5 0.000000 24.620001 25.132000 23.845001 # CH 
46 6 5 0.000000 24.620001 26.532001 23.845001 # CH 
47 6 6 0.000000 25.832001 28.772001 23.845001 # CH3 
48 6 6 0.000000 25.832001 22.892002 23.845001 # CH3 
49 7 1 0.000000 25.832001 27.232000 0.000000 # C 
50 7 5 0.000000 27.044001 26.532001 0.000000 # CH 
51 7 5 0.000000 27.044001 25.132000 0.000000 # CH 
52 7 1 0.000000 25.832001 24.432001 0.000000 # C 
53 7 5 0.000000 24.620001 25.132000 0.000000 # CH 
54 7 5 0.000000 24.620001 26.532001 0.000000 # CH 
55 7 6 0.000000 25.832001 28.772001 0.000000 # CH3 
56 7 6 0.000000 25.832001 22.892002 0.000000 # CH3 
57 8 1 0.000000 25.832001 27.232000 1.987000 # C 
58 8 5 0.000000 27.044001 26.532001 1.987000 # CH 
59 8 5 0.000000 27.044001 25.132000 1.987000 # CH 
60 8 1 0.000000 25.832001 24.432001 1.987000 # C 
61 8 5 0.000000 24.620001 25.132000 1.987000 # CH 
62 8 5 0.000000 24.620001 26.532001 1.987000 # CH 
63 8 6 0.000000 25.832001 28.772001 1.987000 # CH3 
64 8 6 0.000000 25.832001 22.892002 1.987000 # CH3 
65 9 1 0.000000 25.832001 27.232000 3.974000 # C 
66 9 5 0.000000 27.044001 26.532001 3.974000 # CH 
67 9 5 0.000000 27.044001 25.132000 3.974000 # CH 
68 9 1 0.000000 25.832001 24.432001 3.974000 # C 
69 9 5 0.000000 24.620001 25.132000 3.974000 # CH 
70 9 5 0.000000 24.620001 26.532001 3.974000 # CH 
71 9 6 0.000000 25.832001 28.772001 3.974000 # CH3 
72 9 6 0.000000 25.832001 22.892002 3.974000 # CH3 
73 10 1 0.000000 25.832001 27.232000 5.961000 # C 
74 10 5 0.000000 27.044001 26.532001 5.961000 # CH 
75 10 5 0.000000 27.044001 25.132000 5.961000 # CH 
76 10 1 0.000000 25.832001 24.432001 5.961000 # C 
77 10 5 0.000000 24.620001 25.132000 5.961000 # CH 
78 10 5 0.000000 24.620001 26.532001 5.961000 # CH 
79 10 6 0.000000 25.832001 28.772001 5.961000 # CH3 
80 10 6 0.000000 25.832001 22.892002 5.961000 # CH3 
81 11 1 0.000000 25.832001 27.232000 7.948000 # C 
82 11 5 0.000000 27.044001 26.532001 7.948000 # CH 
83 11 5 0.000000 27.044001 25.132000 7.948000 # CH 
84 11 1 0.000000 25.832001 24.432001 7.948000 # C 
85 11 5 0.000000 24.620001 25.132000 7.948000 # CH 
86 11 5 0.000000 24.620001 26.532001 7.948000 # CH 
87 11 6 0.000000 25.832001 28.772001 7.948000 # CH3 
88 11 6 0.000000 25.832001 22.892002 7.948000 # CH3 
89 12 1 0.000000 25.832001 27.232000 9.935000 # C 
90 12 5 0.000000 27.044001 26.532001 9.935000 # CH 
91 12 5 0.000000 27.044001 25.132000 9.935000 # CH 
92 12 1 0.000000 25.832001 24.432001 9.935000 # C 
93 12 5 0.000000 24.620001 25.132000 9.935000 # CH 
94 12 5 0.000000 24.620001 26.532001 9.935000 # CH 
95 12 6 0.000000 25.832001 28.772001 9.935000 # CH3 
96 12 6 0.000000 25.832001 22.892002 9.935000 # CH3 
97 13 1 0.000000 25.832001 27.232000 11.922000 # C 
98 13 5 0.000000 27.044001 26.532001 11.922000 # CH 
99 13 5 0.000000 27.044001 25.132000 11.922000 # CH 
100 13 1 0.000000 25.832001 24.432001 11.922000 # C 
101 13 5 0.000000 24.620001 25.132000 11.922000 # CH 
102 13 5 0.000000 24.620001 26.532001 11.922000 # CH 
103 13 6 0.000000 25.832001 28.772001 11.922000 # CH3 
104 13 6 0.000000 25.832001 22.892002 11.922000 # CH3 
105 14 1 0.000000 25.832001 14.316000 13.910001 # C 
106 14 5 0.000000 27.044001 13.616000 13.910001 # CH 
107 14 5 0.000000 27.044001 12.216000 13.910001 # CH 
108 14 1 0.000000 25.832001 11.516001 13.910001 # C 
109 14 5 0.000000 24.620001 12.216000 13.910001 # CH 
110 14 5 0.000000 24.620001 13.616000 13.910001 # CH 
111 14 6 0.000000 25.832001 15.856000 13.910001 # CH3 
112 14 6 0.000000 25.832001 9.976000 13.910001 # CH3 
113 15 1 0.000000 25.832001 14.316000 15.897000 # C 
114 15 5 0.000000 27.044001 13.616000 15.897000 # CH 
115 15 5 0.000000 27.044001 12.216000 15.897000 # CH 
116 15 1 0.000000 25.832001 11.516001 15.897000 # C 
117 15 5 0.000000 24.620001 12.216000 15.897000 # CH 
118 15 5 0.000000 24.620001 13.616000 15.897000 # CH 
119 15 6 0.000000 25.832001 15.856000 15.897000 # CH3 
120 15 6 0.000000 25.832001 9.976000 15.897000 # CH3 
121 16 1 0.000000 25.832001 14.316000 17.884001 # C 
122 16 5 0.000000 27.044001 13.616000 17.884001 # CH 
123 16 5 0.000000 27.044001 12.216000 17.884001 # CH 
124 16 1 0.000000 25.832001 11.516001 17.884001 # C 
125 16 5 0.000000 24.620001 12.216000 17.884001 # CH 
126 16 5 0.000000 24.620001 13.616000 17.884001 # CH 
127 16 6 0.000000 25.832001 15.856000 17.884001 # CH3 
128 16 6 0.000000 25.832001 9.976000 17.884001 # CH3 
129 17 1 0.000000 25.832001 14.316000 19.871000 # C 
130 17 5 0.000000 27.044001 13.616000 19.871000 # CH 
131 17 5 0.000000 27.044001 12.216000 19.871000 # CH 
132 17 1 0.000000 25.832001 11.516001 19.871000 # C 
133 17 5 0.000000 24.620001 12.216000 19.871000 # CH 
134 17 5 0.000000 24.620001 13.616000 19.871000 # CH 
135 17 6 0.000000 25.832001 15.856000 19.871000 # CH3 
136 17 6 0.000000 25.832001 9.976000 19.871000 # CH3 
137 18 1 0.000000 25.832001 14.316000 21.858002 # C 
138 18 5 0.000000 27.044001 13.616000 21.858002 # CH 
139 18 5 0.000000 27.044001 12.216000 21.858002 # CH 
140 18 1 0.000000 25.832001 11.516001 21.858002 # C 
141 18 5 0.000000 24.620001 12.216000 21.858002 # CH 
142 18 5 0.000000 24.620001 13.616000 21.858002 # CH 
143 18 6 0.000000 25.832001 15.856000 21.858002 # CH3 
144 18 6 0.000000 25.832001 9.976000 21.858002 # CH3 
145 19 1 0.000000 25.832001 14.316000 23.845001 # C 
146 19 5 0.000000 27.044001 13.616000 23.845001 # CH 
147 19 5 0.000000 27.044001 12.216000 23.845001 # CH 
148 19 1 0.000000 25.832001 11.516001 23.845001 # C 
149 19 5 0.000000 24.620001 12.216000 23.845001 # CH 
150 19 5 0.000000 24.620001 13.616000 23.845001 # CH 
151 19 6 0.000000 25.832001 15.856000 23.845001 # CH3 
152 19 6 0.000000 25.832001 9.976000 23.845001 # CH3 
153 20 1 0.000000 25.832001 14.316000 0.000000 # C 
154 20 5 0.000000 27.044001 13.616000 0.000000 # CH 
155 20 5 0.000000 27.044001 12.216000 0.000000 # CH 
156 20 1 0.000000 25.832001 11.516001 0.000000 # C 
157 20 5 0.000000 24.620001 12.216000 0.000000 # CH 
158 20 5 0.000000 24.620001 13.616000 0.000000 # CH 
159 20 6 0.000000 25.832001 15.856000 0.000000 # CH3 
160 20 6 0.000000 25.832001 9.976000 0.000000 # CH3 
161 21 1 0.000000 25.832001 14.316000 1.987000 # C 
162 21 5 0.000000 27.044001 13.616000 1.987000 # CH 
163 21 5 0.000000 27.044001 12.216000 1.987000 # CH 
164 21 1 0.000000 25.832001 11.516001 1.987000 # C 
165 21 5 0.000000 24.620001 12.216000 1.987000 # CH 
166 21 5 0.000000 24.620001 13.616000 1.987000 # CH 
167 21 6 0.000000 25.832001 15.856000 1.987000 # CH3 
168 21 6 0.000000 25.832001 9.976000 1.987000 # CH3 
169 22 1 0.000000 25.832001 14.316000 3.974000 # C 
170 22 5 0.000000 27.044001 13.616000 3.974000 # CH 
171 22 5 0.000000 27.044001 12.216000 3.974000 # CH 
172 22 1 0.000000 25.832001 11.516001 3.974000 # C 
173 22 5 0.000000 24.620001 12.216000 3.974000 # CH 
174 22 5 0.000000 24.620001 13.616000 3.974000 # CH 
175 22 6 0.000000 25.832001 15.856000 3.974000 # CH3 
176 22 6 0.000000 25.832001 9.976000 3.974000 # CH3 
177 23 1 0.000000 25.832001 14.316000 5.961000 # C 
178 23 5 0.000000 27.044001 13.616000 5.961000 # CH 
179 23 5 0.000000 27.044001 12.216000 5.961000 # CH 
180 23 1 0.000000 25.832001 11.516001 5.961000 # C 
181 23 5 0.000000 24.620001 12.216000 5.961000 # CH 
182 23 5 0.000000 24.620001 13.616000 5.961000 # CH 
183 23 6 0.000000 25.832001 15.856000 5.961000 # CH3 
184 23 6 0.000000 25.832001 9.976000 5.961000 # CH3 
185 24 1 0.000000 25.832001 14.316000 7.948000 # C 
186 24 5 0.000000 27.044001 13.616000 7.948000 # CH 
187 24 5 0.000000 27.044001 12.216000 7.948000 # CH 
188 24 1 0.000000 25.832001 11.516001 7.948000 # C 
189 24 5 0.000000 24.620001 12.216000 7.948000 # CH 
190 24 5 0.000000 24.620001 13.616000 7.948000 # CH 
191 24 6 0.000000 25.832001 15.856000 7.948000 # CH3 
192 24 6 0.000000 25.832001 9.976000 7.948000 # CH3 
193 25 1 0.000000 25.832001 14.316000 9.935000 # C 
194 25 5 0.000000 27.044001 13.616000 9.935000 # CH 
195 25 5 0.000000 27.044001 12.216000 9.935000 # CH 
196 25 1 0.000000 25.832001 11.516001 9.935000 # C 
197 25 5 0.000000 24.620001 12.216000 9.935000 # CH 
198 25 5 0.000000 24.620001 13.616000 9.935000 # CH 
199 25 6 0.000000 25.832001 15.856000 9.935000 # CH3 
200 25 6 0.000000 25.832001 9.976000 9.935000 # CH3 
201 26 1 0.000000 25.832001 14.316000 11.922000 # C 
202 26 5 0.000000 27.044001 13.616000 11.922000 # CH 
203 26 5 0.000000 27.044001 12.216000 11.922000 # CH 
204 26 1 0.000000 25.832001 11.516001 11.922000 # C 
205 26 5 0.000000 24.620001 12.216000 11.922000 # CH 
206 26 5 0.000000 24.620001 13.616000 11.922000 # CH 
207 26 6 0.000000 25.832001 15.856000 11.922000 # CH3 
208 26 6 0.000000 25.832001 9.976000 11.922000 # CH3 
209 27 1 0.000000 12.916000 27.232000 13.910001 # C 
210 27 5 0.000000 14.128000 26.532001 13.910001 # CH 
211 27 5 0.000000 14.128000 25.132000 13.910001 # CH 
212 27 1 0.000000 12.916000 24.432001 13.910001 # C 
213 27 5 0.000000 11.704000 25.132000 13.910001 # CH 
214 27 5 0.000000 11.704000 26.532001 13.910001 # CH 
215 27 6 0.000000 12.916000 28.772001 13.910001 # CH3 
216 27 6 0.000000 12.916000 22.892002 13.910001 # CH3 
217 28 1 0.000000 12.916000 27.232000 15.897000 # C 
218 28 5 0.000000 14.128000 26.532001 15.897000 # CH 
219 28 5 0.000000 14.128000 25.132000 15.897000 # CH 
220 28 1 0.000000 12.916000 24.432001 15.897000 # C 
221 28 5 0.000000 11.704000 25.132000 15.897000 # CH 
222 28 5 0.000000 11.704000 26.532001 15.897000 # CH 
223 28 6 0.000000 12.916000 28.772001 15.897000 # CH3 
224 28 6 0.000000 12.916000 22.892002 15.897000 # CH3 
225 29 1 0.000000 12.916000 27.232000 17.884001 # C 
226 29 5 0.000000 14.128000 26.532001 17.884001 # CH 
227 29 5 0.000000 14.128000 25.132000 17.884001 # CH 
228 29 1 0.000000 12.916000 24.432001 17.884001 # C 
229 29 5 0.000000 11.704000 25.132000 17.884001 # CH 
230 29 5 0.000000 11.704000 26.532001 17.884001 # CH 
231 29 6 0.000000 12.916000 28.772001 17.884001 # CH3 
232 29 6 0.000000 12.916000 22.892002 17.884001 # CH3 
233 30 1 0.000000 12.916000 27.232000 19.871000 # C 
234 30 5 0.000000 14.128000 26.532001 19.871000 # CH 
235 30 5 0.000000 14.128000 25.132000 19.871000 # CH 
236 30 1 0.000000 12.916000 24.432001 19.871000 # C 
237 30 5 0.000000 11.704000 25.132000 19.871000 # CH 
238 30 5 0.000000 11.704000 26.532001 19.871000 # CH 
239 30 6 0.000000 12.916000 28.772001 19.871000 # CH3 
240 30 6 0.000000 12.916000 22.892002 19.871000 # CH3 
241 31 1 0.000000 12.916000 27.232000 21.858002 # C 
242 31 5 0.000000 14.128000 26.532001 21.858002 # CH 
243 31 5 0.000000 14.128000 25.132000 21.858002 # CH 
244 31 1 0.000000 12.916000 24.432001 21.858002 # C 
245 31 5 0.000000 11.704000 25.132000 21.858002 # CH 
246 31 5 0.000000 11.704000 26.532001 21.858002 # CH 
247 31 6 0.000000 12.916000 28.772001 21.858002 # CH3 
248 31 6 0.000000 12.916000 22.892002 21.858002 # CH3 
249 32 1 0.000000 12.916000 27.232000 23.845001 # C 
250 32 5 0.000000 14.128000 26.532001 23.845001 # CH 
251 32 5 0.000000 14.128000 25.132000 23.845001 # CH 
252 32 1 0.000000 12.916000 24.432001 23.845001 # C 
253 32 5 0.000000 11.704000 25.132000 23.845001 # CH 
254 32 5 0.000000 11.704000 26.532001 23.845001 # CH 
255 32 6 0.000000 12.916000 28.772001 23.845001 # CH3 
256 32 6 0.000000 12.916000 22.892002 23.845001 # CH3 
257 33 1 0.000000 12.916000 27.232000 0.000000 # C 
258 33 5 0.000000 14.128000 26.532001 0.000000 # CH 
259 33 5 0.000000 14.128000 25.132000 0.000000 # CH 
260 33 1 0.000000 12.916000 24.432001 0.000000 # C 
261 33 5 0.000000 11.704000 25.132000 0.000000 # CH 
262 33 5 0.000000 11.704000 26.532001 0.000000 # CH 
263 33 6 0.000000 12.916000 28.772001 0.000000 # CH3 
264 33 6 0.000000 12.916000 22.892002 0.000000 # CH3 
265 34 1 0.000000 12.916000 27.232000 1.987000 # C 
266 34 5 0.000000 14.128000 26.532001 1.987000 # CH 
267 34 5 0.000000 14.128000 25.132000 1.987000 # CH 
268 34 1 0.000000 12.916000 24.432001 1.987000 # C 
269 34 5 0.000000 11.704000 25.132000 1.987000 # CH 
270 34 5 0.000000 11.704000 26.532001 1.987000 # CH 
271 34 6 0.000000 12.916000 28.772001 1.987000 # CH3 
272 34 6 0.000000 12.916000 22.892002 1.987000 # CH3 
273 35 1 0.000000 12.916000 27.232000 3.974000 # C 
274 35 5 0.000000 14.128000 26.532001 3.974000 # CH 
275 35 5 0.000000 14.128000 25.132000 3.974000 # CH 
276 35 1 0.000000 12.916000 24.432001 3.974000 # C 
277 35 5 0.000000 11.704000 25.132000 3.974000 # CH 
278 35 5 0.000000 11.704000 26.532001 3.974000 # CH 
279 35 6 0.000000 12.916000 28.772001 3.974000 # CH3 
280 35 6 0.000000 12.916000 22.892002 3.974000 # CH3 
281 36 1 0.000000 12.916000 27.232000 5.961000 # C 
282 36 5 0.000000 14.128000 26.532001 5.961000 # CH 
283 36 5 0.000000 14.128000 25.132000 5.961000 # CH 
284 36 1 0.000000 12.916000 24.432001 5.961000 # C 
285 36 5 0.000000 11.704000 25.132000 5.961000 # CH 
286 36 5 0.000000 11.704000 26.532001 5.961000 # CH 
287 36 6 0.000000 12.916000 28.772001 5.961000 # CH3 
288 36 6 0.000000 12.916000 22.892002 5.961000 # CH3 
289 37 1 0.000000 12.916000 27.232000 7.948000 # C 
290 37 5 0.000000 14.128000 26.532001 7.948000 # CH 
291 37 5 0.000000 14.128000 25.132000 7.948000 # CH 
292 37 1 0.000000 12.916000 24.432001 7.948000 # C 
293 37 5 0.000000 11.704000 25.132000 7.948000 # CH 
294 37 5 0.000000 11.704000 26.532001 7.948000 # CH 
295 37 6 0.000000 12.916000 28.772001 7.948000 # CH3 
296 37 6 0.000000 12.916000 22.892002 7.948000 # CH3 
297 38 1 0.000000 12.916000 27.232000 9.935000 # C 
298 38 5 0.000000 14.128000 26.532001 9.935000 # CH 
299 38 5 0.000000 14.128000 25.132000 9.935000 # CH 
300 38 1 0.000000 12.916000 24.432001 9.935000 # C 
301 38 5 0.000000 11.704000 25.132000 9.935000 # CH 
302 38 5 0.000000 11.704000 26.532001 9.935000 # CH 
303 38 6 0.000000 12.916000 28.772001 9.935000 # CH3 
304 38 6 0.000000 12.916000 22.892002 9.935000 # CH3 
305 39 1 0.000000 12.916000 27.232000 11.922000 # C 
306 39 5 0.000000 14.128000 26.532001 11.922000 # CH 
307 39 5 0.000000 14.128000 25.132000 11.922000 # CH 
308 39 1 0.000000 12.916000 24.432001 11.922000 # C 
309 39 5 0.000000 11.704000 25.132000 11.922000 # CH 
310 39 5 0.000000 11.704000 26.532001 11.922000 # CH 
311 39 6 0.000000 12.916000 28.772001 11.922000 # CH3 
312 39 6 0.000000 12.916000 22.892002 11.922000 # CH3 
313 40 1 0.000000 12.916000 14.316000 13.910001 # C 
314 40 5 0.000000 14.128000 13.616000 13.910001 # CH 
315 40 5 0.000000 14.128000 12.216000 13.910001 # CH 
316 40 1 0.000000 12.916000 11.516001 13.910001 # C 
317 40 5 0.000000 11.704000 12.216000 13.910001 # CH 
318 40 5 0.000000 11.704000 13.616000 13.910001 # CH 
319 40 6 0.000000 12.916000 15.856000 13.910001 # CH3 
320 40 6 0.000000 12.916000 9.976000 13.910001 # CH3 
321 41 1 0.000000 12.916000 14.316000 15.897000 # C 
322 41 5 0.000000 14.128000 13.616000 15.897000 # CH 
323 41 5 0.000000 14.128000 12.216000 15.897000 # CH 
324 41 1 0.000000 12.916000 11.516001 15.897000 # C 
325 41 5 0.000000 11.704000 12.216000 15.897000 # CH 
326 41 5 0.000000 11.704000 13.616000 15.897000 # CH 
327 41 6 0.000000 12.916000 15.856000 15.897000 # CH3 
328 41 6 0.000000 12.916000 9.976000 15.897000 # CH3 
329 42 1 0.000000 12.916000 14.316000 17.884001 # C 
330 42 5 0.000000 14.128000 13.616000 17.884001 # CH 
331 42 5 0.000000 14.128000 12.216000 17.884001 # CH 
332 42 1 0.000000 12.916000 11.516001 17.884001 # C 
333 42 5 0.000000 11.704000 12.216000 17.884001 # CH 
334 42 5 0.000000 11.704000 13.616000 17.884001 # CH 
335 42 6 0.000000 12.916000 15.856000 17.884001 # CH3 
336 42 6 0.000000 12.916000 9.976000 17.884001 # CH3 
337 43 1 0.000000 12.916000 14.316000 19.871000 # C 
338 43 5 0.000000 14.128000 13.616000 19.871000 # CH 
339 43 5 0.000000 14.128000 12.216000 19.871000 # CH 
340 43 1 0.000000 12.916000 11.516001 19.871000 # C 
341 43 5 0.000000 11.704000 12.216000 19.871000 # CH 
342 43 5 0.000000 11.704000 13.616000 19.871000 # CH 
343 43 6 0.000000 12.916000 15.856000 19.871000 # CH3 
344 43 6 0.000000 12.916000 9.976000 19.871000 # CH3 
345 44 1 0.000000 12.916000 14.316000 21.858002 # C 
346 44 5 0.000000 14.128000 13.616000 21.858002 # CH 
347 44 5 0.000000 14.128000 12.216000 21.858002 # CH 
348 44 1 0.000000 12.916000 11.516001 21.858002 # C 
349 44 5 0.000000 11.704000 12.216000 21.858002 # CH 
350 44 5 0.000000 11.704000 13.616000 21.858002 # CH 
351 44 6 0.000000 12.916000 15.856000 21.858002 # CH3 
352 44 6 0.000000 12.916000 9.976000 21.858002 # CH3 
353 45 1 0.000000 12.916000 14.316000 23.845001 # C 
354 45 5 0.000000 14.128000 13.616000 23.845001 # CH 
355 45 5 0.000000 14.128000 12.216000 23.845001 # CH 
356 45 1 0.000000 12.916000 11.516001 23.845001 # C 
357 45 5 0.000000 11.704000 12.216000 23.845001 # CH 
358 45 5 0.000000 11.704000 13.616000 23.845001 # CH 
359 45 6 0.000000 12.916000 15.856000 23.845001 # CH3 
360 45 6 0.000000 12.916000 9.976000 23.845001 # CH3 
361 46 1 0.000000 12.916000 14.316000 0.000000 # C 
362 46 5 0.000000 14.128000 13.616000 0.000000 # CH 
363 46 5 0.000000 14.128000 12.216000 0.000000 # CH 
364 46 1 0.000000 12.916000 11.516001 0.000000 # C 
365 46 5 0.000000 11.704000 12.216000 0.000000 # CH 
366 46 5 0.000000 11.704000 13.616000 0.000000 # CH 
367 46 6 0.000000 12.916000 15.856000 0.000000 # CH3 
368 46 6 0.000000 12.916000 9.976000 0.000000 # CH3 
369 47 1 0.000000 12.916000 14.316000 1.987000 # C 
370 47 5 0.000000 14.128000 13.616000 1.987000 # CH 
371 47 5 0.000000 14.128000 12.216000 1.987000 # CH 
372 47 1 0.000000 12.916000 11.516001 1.987000 # C 
373 47 5 0.000000 11.704000 12.216000 1.987000 # CH 
374 47 5 0.000000 11.704000 13.616000 1.987000 # CH 
375 47 6 0.000000 12.916000 15.856000 1.987000 # CH3 
376 47 6 0.000000 12.916000 9.976000 1.987000 # CH3 
377 48 1 0.000000 12.916000 14.316000 3.974000 # C 
378 48 5 0.000000 14.128000 13.616000 3.974000 # CH 
379 48 5 0.000000 14.128000 12.216000 3.974000 # CH 
380 48 1 0.000000 12.916000 11.516001 3.974000 # C 
381 48 5 0.000000 11.704000 12.216000 3.974000 # CH 
382 48 5 0.000000 11.704000 13.616000 3.974000 # CH 
383 48 6 0.000000 12.916000 15.856000 3.974000 # CH3 
384 48 6 0.000000 12.916000 9.976000 3.974000 # CH3 
385 49 1 0.000000 12.916000 14.316000 5.961000 # C 
386 49 5 0.000000 14.128000 13.616000 5.961000 # CH 
387 49 5 0.000000 14.128000 12.216000 5.961000 # CH 
388 49 1 0.000000 12.916000 11.516001 5.961000 # C 
389 49 5 0.000000 11.704000 12.216000 5.961000 # CH 
390 49 5 0.000000 11.704000 13.616000 5.961000 # CH 
391 49 6 0.000000 12.916000 15.856000 5.961000 # CH3 
392 49 6 0.000000 12.916000 9.976000 5.961000 # CH3 
393 50 1 0.000000 12.916000 14.316000 7.948000 # C 
394 50 5 0.000000 14.128000 13.616000 7.948000 # CH 
395 50 5 0.000000 14.128000 12.216000 7.948000 # CH 
396 50 1 0.000000 12.916000 11.516001 7.948000 # C 
397 50 5 0.000000 11.704000 12.216000 7.948000 # CH 
398 50 5 0.000000 11.704000 13.616000 7.948000 # CH 
399 50 6 0.000000 12.916000 15.856000 7.948000 # CH3 
400 50 6 0.000000 12.916000 9.976000 7.948000 # CH3 
401 51 10 1.275000 7.579000 5.337000 5.337000 # Zn1 LIG
402 51 8 -1.500000 6.458000 6.458000 6.458000 # O1 LIG
403 51 9 -0.600000 7.282000 5.634000 3.461000 # O2 LIG
404 51 2 0.475000 6.458000 6.458000 2.875000 # C1 LIG
405 51 3 0.125000 6.458000 6.458000 1.390000 # C2 LIG
406 51 4 -0.150000 7.308000 5.608000 0.695000 # C3 LIG
407 51 7 0.150000 7.876000 5.040000 1.157000 # H1 LIG
408 51 10 1.275000 20.495001 7.579000 5.337000 # Zn1 LIG
409 51 8 -1.500000 19.374001 6.458000 6.458000 # O1 LIG
410 51 9 -0.600000 20.198000 7.282000 3.461000 # O2 LIG
411 51 2 0.475000 19.374001 6.458000 2.875000 # C1 LIG
412 51 3 0.125000 19.374001 6.458000 1.390000 # C2 LIG
413 51 4 -0.150000 20.224001 7.308000 0.695000 # C3 LIG
414 51 7 0.150000 20.792000 7.876000 1.157000 # H1 LIG
415 51 10 1.275000 18.253000 20.495001 5.337000 # Zn1 LIG
416 51 8 -1.500000 19.374001 19.374001 6.458000 # O1 LIG
417 51 9 -0.600000 18.549999 20.198000 3.461000 # O2 LIG
418 51 2 0.475000 19.374001 19.374001 2.875000 # C1 LIG
419 51 3 0.125000 19.374001 19.374001 1.390000 # C2 LIG
420 51 4 -0.150000 18.524000 20.224001 0.695000 # C3 LIG
421 51 7 0.150000 17.955999 20.792000 1.157000 # H1 LIG
422 51 10 1.275000 5.337000 18.253000 5.337000 # Zn1 LIG
423 51 8 -1.500000 6.458000 19.374001 6.458000 # O1 LIG
424 51 9 -0.600000 5.634000 18.549999 3.461000 # O2 LIG
425 51 2 0.475000 6.458000 19.374001 2.875000 # C1 LIG
426 51 3 0.125000 6.458000 19.374001 1.390000 # C2 LIG
427 51 4 -0.150000 5.608000 18.524000 0.695000 # C3 LIG
428 51 7 0.150000 5.040000 17.955999 1.157000 # H1 LIG
429 51 10 1.275000 7.579000 20.495001 20.495001 # Zn1 LIG
430 51 8 -1.500000 6.458000 19.374001 19.374001 # O1 LIG
431 51 9 -0.600000 7.282000 20.198000 22.371000 # O2 LIG
432 51 2 0.475000 6.458000 19.374001 22.957001 # C1 LIG
433 51 3 0.125000 6.458000 19.374001 24.441999 # C2 LIG
434 51 4 -0.150000 7.308000 20.224001 25.136999 # C3 LIG
435 51 7 0.150000 7.876000 20.792000 24.674999 # H1 LIG
436 51 10 1.275000 5.337000 7.579000 20.495001 # Zn1 LIG
437 51 8 -1.500000 6.458000 6.458000 19.374001 # O1 LIG
438 51 9 -0.600000 5.634000 7.282000 22.371000 # O2 LIG
439 51 2 0.475000 6.458000 6.458000 22.957001 # C1 LIG
440 51 3 0.125000 6.458000 6.458000 24.441999 # C2 LIG
441 51 4 -0.150000 5.608000 7.308000 25.136999 # C3 LIG
442 51 7 0.150000 5.040000 7.876000 24.674999 # H1 LIG
443 51 10 1.275000 18.253000 5.337000 20.495001 # Zn1 LIG
444 51 8 -1.500000 19.374001 6.458000 19.374001 # O1 LIG
445 51 9 -0.600000 18.549999 5.634000 22.371000 # O2 LIG
446 51 2 0.475000 19.374001 6.458000 22.957001 # C1 LIG
447 51 3 0.125000 19.374001 6.458000 24.441999 # C2 LIG
448 51 4 -0.150000 18.524000 5.608000 25.136999 # C3 LIG
449 51 7 0.150000 17.955999 5.040000 24.674999 # H1 LIG
450 51 10 1.275000 20.495001 18.253000 20.495001 # Zn1 LIG
451 51 8 -1.500000 19.374001 19.374001 19.374001 # O1 LIG
452 51 9 -0.600000 20.198000 18.549999 22.371000 # O2 LIG
453 51 2 0.475000 19.374001 19.374001 22.957001 # C1 LIG
454 51 3 0.125000 19.374001 19.374001 24.441999 # C2 LIG
455 51 4 -0.150000 20.224001 18.524000 25.136999 # C3 LIG
456 51 7 0.150000 20.792000 17.955999 24.674999 # H1 LIG
457 51 10 1.275000 5.337000 7.579000 5.337000 # Zn1 LIG
458 51 9 -0.600000 3.461000 7.282000 5.634000 # O2 LIG
459 51 2 0.475000 2.875000 6.458000 6.458000 # C1 LIG
460 51 3 0.125000 1.390000 6.458000 6.458000 # C2 LIG
461 51 4 -0.150000 0.695000 7.308000 5.608000 # C3 LIG
462 51 7 0.150000 1.157000 7.876000 5.040000 # H1 LIG
463 51 10 1.275000 18.253000 5.337000 5.337000 # Zn1 LIG
464 51 9 -0.600000 18.549999 3.461000 5.634000 # O2 LIG
465 51 2 0.475000 19.374001 2.875000 6.458000 # C1 LIG
466 51 3 0.125000 19.374001 1.390000 6.458000 # C2 LIG
467 51 4 -0.150000 18.524000 0.695000 5.608000 # C3 LIG
468 51 7 0.150000 17.955999 1.157000 5.040000 # H1 LIG
469 51 10 1.275000 20.495001 18.253000 5.337000 # Zn1 LIG
470 51 9 -0.600000 22.371000 18.549999 5.634000 # O2 LIG
471 51 2 0.475000 22.957001 19.374001 6.458000 # C1 LIG
472 51 3 0.125000 24.441999 19.374001 6.458000 # C2 LIG
473 51 4 -0.150000 25.136999 18.524000 5.608000 # C3 LIG
474 51 7 0.150000 24.674999 17.955999 5.040000 # H1 LIG
475 51 10 1.275000 7.579000 20.495001 5.337000 # Zn1 LIG
476 51 9 -0.600000 7.282000 22.371000 5.634000 # O2 LIG
477 51 2 0.475000 6.458000 22.957001 6.458000 # C1 LIG
478 51 3 0.125000 6.458000 24.441999 6.458000 # C2 LIG
479 51 4 -0.150000 7.308000 25.136999 5.608000 # C3 LIG
480 51 7 0.150000 7.876000 24.674999 5.040000 # H1 LIG
481 51 10 1.275000 5.337000 18.253000 20.495001 # Zn1 LIG
482 51 9 -0.600000 3.461000 18.549999 20.198000 # O2 LIG
483 51 2 0.475000 2.875000 19.374001 19.374001 # C1 LIG
484 51 3 0.125000 1.390000 19.374001 19.374001 # C2 LIG
485 51 4 -0.150000 0.695000 18.524000 20.224001 # C3 LIG
486 51 7 0.150000 1.157000 17.955999 20.792000 # H1 LIG
487 51 10 1.275000 7.579000 5.337000 20.495001 # Zn1 LIG
488 51 9 -0.600000 7.282000 3.461000 20.198000 # O2 LIG
489 51 2 0.475000 6.458000 2.875000 19.374001 # C1 LIG
490 51 3 0.125000 6.458000 1.390000 19.374001 # C2 LIG
491 51 4 -0.150000 7.308000 0.695000 20.224001 # C3 LIG
492 51 7 0.150000 7.876000 1.157000 20.792000 # H1 LIG
493 51 10 1.275000 20.495001 7.579000 20.495001 # Zn1 LIG
494 51 9 -0.600000 22.371000 7.282000 20.198000 # O2 LIG
495 51 2 0.475000 22.957001 6.458000 19.374001 # C1 LIG
496 51 3 0.125000 24.441999 6.458000 19.374001 # C2 LIG
497 51 4 -0.150000 25.136999 7.308000 20.224001 # C3 LIG
498 51 7 0.150000 24.674999 7.876000 20.792000 # H1 LIG
499 51 10 1.275000 18.253000 20.495001 20.495001 # Zn1 LIG
500 51 9 -0.600000 18.549999 22.371000 20.198000 # O2 LIG
501 51 2 0.475000 19.374001 22.957001 19.374001 # C1 LIG
502 51 3 0.125000 19.374001 24.441999 19.374001 # C2 LIG
503 51 4 -0.150000 18.524000 25.136999 20.224001 # C3 LIG
504 51 7 0.150000 17.955999 24.674999 20.792000 # H1 LIG
505 51 10 1.275000 5.337000 5.337000 7.579000 # Zn1 LIG
506 51 9 -0.600000 5.634000 3.461000 7.282000 # O2 LIG
507 51 2 0.475000 6.458000 2.875000 6.458000 # C1 LIG
508 51 3 0.125000 6.458000 1.390000 6.458000 # C2 LIG
509 51 4 -0.150000 5.608000 0.695000 7.308000 # C3 LIG
510 51 7 0.150000 5.040000 1.157000 7.876000 # H1 LIG
511 51 10 1.275000 5.337000 20.495001 18.253000 # Zn1 LIG
512 51 9 -0.600000 5.634000 22.371000 18.549999 # O2 LIG
513 51 2 0.475000 6.458000 22.957001 19.374001 # C1 LIG
514 51 3 0.125000 6.458000 24.441999 19.374001 # C2 LIG
515 51 4 -0.150000 5.608000 25.136999 18.524000 # C3 LIG
516 51 7 0.150000 5.040000 24.674999 17.955999 # H1 LIG
517 51 10 1.275000 5.337000 5.337000 18.253000 # Zn1 LIG
518 51 9 -0.600000 3.461000 5.634000 18.549999 # O2 LIG
519 51 2 0.475000 2.875000 6.458000 19.374001 # C1 LIG
520 51 3 0.125000 1.390000 6.458000 19.374001 # C2 LIG
521 51 4 -0.150000 0.695000 5.608000 18.524000 # C3 LIG
522 51 7 0.150000 1.157000 5.040000 17.955999 # H1 LIG
523 51 10 1.275000 20.495001 5.337000 18.253000 # Zn1 LIG
524 51 9 -0.600000 20.198000 3.461000 18.549999 # O2 LIG
525 51 2 0.475000 19.374001 2.875000 19.374001 # C1 LIG
526 51 3 0.125000 19.374001 1.390000 19.374001 # C2 LIG
527 51 4 -0.150000 20.224001 0.695000 18.524000 # C3 LIG
528 51 7 0.150000 20.792000 1.157000 17.955999 # H1 LIG
529 51 10 1.275000 20.495001 20.495001 18.253000 # Zn1 LIG
530 51 9 -0.600000 22.371000 20.198000 18.549999 # O2 LIG
531 51 2 0.475000 22.957001 19.374001 19.374001 # C1 LIG
532 51 3 0.125000 24.441999 19.374001 19.374001 # C2 LIG
533 51 4 -0.150000 25.136999 20.224001 18.524000 # C3 LIG
534 51 7 0.150000 24.674999 20.792000 17.955999 # H1 LIG
535 51 10 1.275000 20.495001 20.495001 7.579000 # Zn1 LIG
536 51 9 -0.600000 20.198000 22.371000 7.282000 # O2 LIG
537 51 2 0.475000 19.374001 22.957001 6.458000 # C1 LIG