LAMMPS data file. CGCMM style. atom_style charge generated by VMD/TopoTools v1.5 on Thu Oct 06 13:40:20 CEST 2016
 1410 atoms
 0 bonds
 0 angles
 0 dihedrals
 0 impropers
 11 atom types
 0 bond types
 0 angle types
 0 dihedral types
 0 improper types
 0.444700 26.558700  xlo xhi
 0.314250 45.544250  ylo yhi
 -0.000000 27.667000  zlo zhi

# Pair Coeffs
#
# 1  Ca
# 2  Cb
# 3  Cc
# 4  Cd
# 5  Cg
# 6  H
# 7  Mg
# 8  Oa
# 9  Ob
# 10  Oc
# 11  Og

 Masses

 1 12.011000 # Ca
 2 12.011000 # Cb
 3 12.011000 # Cc
 4 12.011000 # Cd
 5 12.011000 # Cg
 6 1.008000 # H
 7 24.305000 # Mg
 8 15.999000 # Oa
 9 15.999000 # Ob
 10 15.999000 # Oc
 11 15.999000 # Og

 Atoms

1 11 -0.325600 26.114401 45.230499 16.376999 # Og
2 5 0.651200 26.114401 45.230499 15.217000 # Cg
3 11 -0.325600 26.114401 45.230499 14.057000 # Og
4 11 -0.325600 26.114401 45.230499 19.144001 # Og
5 5 0.651200 26.114401 45.230499 17.984001 # Cg
6 11 -0.325600 26.114401 45.230499 16.823999 # Og
7 11 -0.325600 26.114401 45.230499 21.910000 # Og
8 5 0.651200 26.114401 45.230499 20.750000 # Cg
9 11 -0.325600 26.114401 45.230499 19.590000 # Og
10 11 -0.325600 26.114401 45.230499 24.677000 # Og
11 5 0.651200 26.114401 45.230499 23.517000 # Cg
12 11 -0.325600 26.114401 45.230499 22.357000 # Og
13 11 -0.325600 26.114401 45.230499 27.444000 # Og
14 5 0.651200 26.114401 45.230499 26.284000 # Cg
15 11 -0.325600 26.114401 45.230499 25.124001 # Og
16 11 -0.325600 26.114401 45.230499 2.543000 # Og
17 5 0.651200 26.114401 45.230499 1.383000 # Cg
18 11 -0.325600 26.114401 45.230499 0.223000 # Og
19 11 -0.325600 26.114401 45.230499 5.310000 # Og
20 5 0.651200 26.114401 45.230499 4.150000 # Cg
21 11 -0.325600 26.114401 45.230499 2.990000 # Og
22 11 -0.325600 26.114401 45.230499 8.077000 # Og
23 5 0.651200 26.114401 45.230499 6.917000 # Cg
24 11 -0.325600 26.114401 45.230499 5.757000 # Og
25 11 -0.325600 26.114401 45.230499 10.843000 # Og
26 5 0.651200 26.114401 45.230499 9.683000 # Cg
27 11 -0.325600 26.114401 45.230499 8.523000 # Og
28 11 -0.325600 26.114401 45.230499 13.610000 # Og
29 5 0.651200 26.114401 45.230499 12.450000 # Cg
30 11 -0.325600 26.114401 45.230499 11.290000 # Og
31 11 -0.325600 26.114401 22.614500 16.376999 # Og
32 5 0.651200 26.114401 22.614500 15.217000 # Cg
33 11 -0.325600 26.114401 22.614500 14.057000 # Og
34 11 -0.325600 26.114401 22.614500 19.144001 # Og
35 5 0.651200 26.114401 22.614500 17.984001 # Cg
36 11 -0.325600 26.114401 22.614500 16.823999 # Og
37 11 -0.325600 26.114401 22.614500 21.910000 # Og
38 5 0.651200 26.114401 22.614500 20.750000 # Cg
39 11 -0.325600 26.114401 22.614500 19.590000 # Og
40 11 -0.325600 26.114401 22.614500 24.677000 # Og
41 5 0.651200 26.114401 22.614500 23.517000 # Cg
42 11 -0.325600 26.114401 22.614500 22.357000 # Og
43 11 -0.325600 26.114401 22.614500 27.444000 # Og
44 5 0.651200 26.114401 22.614500 26.284000 # Cg
45 11 -0.325600 26.114401 22.614500 25.124001 # Og
46 11 -0.325600 26.114401 22.614500 2.543000 # Og
47 5 0.651200 26.114401 22.614500 1.383000 # Cg
48 11 -0.325600 26.114401 22.614500 0.223000 # Og
49 11 -0.325600 26.114401 22.614500 5.310000 # Og
50 5 0.651200 26.114401 22.614500 4.150000 # Cg
51 11 -0.325600 26.114401 22.614500 2.990000 # Og
52 11 -0.325600 26.114401 22.614500 8.077000 # Og
53 5 0.651200 26.114401 22.614500 6.917000 # Cg
54 11 -0.325600 26.114401 22.614500 5.757000 # Og
55 11 -0.325600 26.114401 22.614500 10.843000 # Og
56 5 0.651200 26.114401 22.614500 9.683000 # Cg
57 11 -0.325600 26.114401 22.614500 8.523000 # Og
58 11 -0.325600 26.114401 22.614500 13.610000 # Og
59 5 0.651200 26.114401 22.614500 12.450000 # Cg
60 11 -0.325600 26.114401 22.614500 11.290000 # Og
61 11 -0.325600 13.056400 45.230499 16.376999 # Og
62 5 0.651200 13.056400 45.230499 15.217000 # Cg
63 11 -0.325600 13.056400 45.230499 14.057000 # Og
64 11 -0.325600 13.056400 45.230499 19.144001 # Og
65 5 0.651200 13.056400 45.230499 17.984001 # Cg
66 11 -0.325600 13.056400 45.230499 16.823999 # Og
67 11 -0.325600 13.056400 45.230499 21.910000 # Og
68 5 0.651200 13.056400 45.230499 20.750000 # Cg
69 11 -0.325600 13.056400 45.230499 19.590000 # Og
70 11 -0.325600 13.056400 45.230499 24.677000 # Og
71 5 0.651200 13.056400 45.230499 23.517000 # Cg
72 11 -0.325600 13.056400 45.230499 22.357000 # Og
73 11 -0.325600 13.056400 45.230499 27.444000 # Og
74 5 0.651200 13.056400 45.230499 26.284000 # Cg
75 11 -0.325600 13.056400 45.230499 25.124001 # Og
76 11 -0.325600 13.056400 45.230499 2.543000 # Og
77 5 0.651200 13.056400 45.230499 1.383000 # Cg
78 11 -0.325600 13.056400 45.230499 0.223000 # Og
79 11 -0.325600 13.056400 45.230499 5.310000 # Og
80 5 0.651200 13.056400 45.230499 4.150000 # Cg
81 11 -0.325600 13.056400 45.230499 2.990000 # Og
82 11 -0.325600 13.056400 45.230499 8.077000 # Og
83 5 0.651200 13.056400 45.230499 6.917000 # Cg
84 11 -0.325600 13.056400 45.230499 5.757000 # Og
85 11 -0.325600 13.056400 45.230499 10.843000 # Og
86 5 0.651200 13.056400 45.230499 9.683000 # Cg
87 11 -0.325600 13.056400 45.230499 8.523000 # Og
88 11 -0.325600 13.056400 45.230499 13.610000 # Og
89 5 0.651200 13.056400 45.230499 12.450000 # Cg
90 11 -0.325600 13.056400 45.230499 11.290000 # Og
91 11 -0.325600 13.056400 22.614500 16.376999 # Og
92 5 0.651200 13.056400 22.614500 15.217000 # Cg
93 11 -0.325600 13.056400 22.614500 14.057000 # Og
94 11 -0.325600 13.056400 22.614500 19.144001 # Og
95 5 0.651200 13.056400 22.614500 17.984001 # Cg
96 11 -0.325600 13.056400 22.614500 16.823999 # Og
97 11 -0.325600 13.056400 22.614500 21.910000 # Og
98 5 0.651200 13.056400 22.614500 20.750000 # Cg
99 11 -0.325600 13.056400 22.614500 19.590000 # Og
100 11 -0.325600 13.056400 22.614500 24.677000 # Og
101 5 0.651200 13.056400 22.614500 23.517000 # Cg
102 11 -0.325600 13.056400 22.614500 22.357000 # Og
103 11 -0.325600 13.056400 22.614500 27.444000 # Og
104 5 0.651200 13.056400 22.614500 26.284000 # Cg
105 11 -0.325600 13.056400 22.614500 25.124001 # Og
106 11 -0.325600 13.056400 22.614500 2.543000 # Og
107 5 0.651200 13.056400 22.614500 1.383000 # Cg
108 11 -0.325600 13.056400 22.614500 0.223000 # Og
109 11 -0.325600 13.056400 22.614500 5.310000 # Og
110 5 0.651200 13.056400 22.614500 4.150000 # Cg
111 11 -0.325600 13.056400 22.614500 2.990000 # Og
112 11 -0.325600 13.056400 22.614500 8.077000 # Og
113 5 0.651200 13.056400 22.614500 6.917000 # Cg
114 11 -0.325600 13.056400 22.614500 5.757000 # Og
115 7 1.560000 5.314000 7.966000 21.684460 # Mg
116 7 1.560000 18.371000 30.580999 21.684460 # Mg
117 7 1.560000 4.242000 6.491000 19.378460 # Mg
118 7 1.560000 17.299000 29.106001 19.378460 # Mg
119 7 1.560000 3.501000 8.158000 23.990459 # Mg
120 7 1.560000 16.558001 30.773001 23.990459 # Mg
121 7 1.560000 7.743000 14.649000 19.815460 # Mg
122 7 1.560000 20.799000 37.264000 19.815460 # Mg
123 7 1.560000 8.815000 16.124001 22.120461 # Mg
124 7 1.560000 21.872000 38.738998 22.120461 # Mg
125 7 1.560000 9.556000 14.457000 17.509460 # Mg
126 7 1.560000 22.613001 37.071999 17.509460 # Mg
127 7 1.560000 8.815000 31.200001 19.815460 # Mg
128 7 1.560000 21.872000 8.585000 19.815460 # Mg
129 7 1.560000 9.556000 29.534000 22.120461 # Mg
130 7 1.560000 22.613001 6.919000 22.120461 # Mg
131 7 1.560000 4.242000 21.568001 23.990459 # Mg
132 7 1.560000 17.299000 44.182999 23.990459 # Mg
133 7 1.560000 8.815000 1.047000 17.509460 # Mg
134 7 1.560000 21.872000 23.662001 17.509460 # Mg
135 7 1.560000 5.314000 38.118999 23.990459 # Mg
136 7 1.560000 18.371000 15.504000 23.990459 # Mg
137 7 1.560000 7.743000 44.801998 22.120461 # Mg
138 7 1.560000 20.799000 22.187000 22.120461 # Mg
139 7 1.560000 9.556000 44.611000 19.815460 # Mg
140 7 1.560000 22.613001 21.996000 19.815460 # Mg
141 7 1.560000 3.501000 38.311001 19.378460 # Mg
142 7 1.560000 16.558001 15.696000 19.378460 # Mg
143 7 1.560000 4.242000 36.645000 21.684460 # Mg
144 7 1.560000 17.299000 14.030000 21.684460 # Mg
145 7 1.560000 5.314000 23.042999 19.378460 # Mg
146 7 1.560000 18.371000 0.428000 19.378460 # Mg
147 7 1.560000 3.501000 23.233999 21.684460 # Mg
148 7 1.560000 16.558001 0.619000 21.684460 # Mg
149 7 1.560000 7.743000 29.726000 17.509460 # Mg
150 7 1.560000 20.799000 7.111000 17.509460 # Mg
151 1 0.900000 5.704000 9.170000 19.055460 # Ca
152 1 0.900000 18.761000 31.785000 19.055460 # Ca
153 2 -0.314000 6.098000 10.247000 18.115459 # Cb
154 2 -0.314000 19.155001 32.862000 18.115459 # Cb
155 4 -0.234000 6.932000 11.258000 18.610460 # Cd
156 4 -0.234000 19.989000 33.873001 18.610460 # Cd
157 6 0.186000 7.248000 11.206000 19.650459 # H
158 6 0.186000 20.305000 33.820999 19.650459 # H
159 9 -0.752000 6.149000 9.140000 20.245461 # Ob
160 9 -0.752000 19.205999 31.754999 20.245461 # Ob
161 8 -0.899000 4.881000 8.269000 18.627460 # Oa
162 8 -0.899000 17.938000 30.884001 18.627460 # Oa
163 10 -0.903000 8.183000 13.257000 18.410460 # Oc
164 10 -0.903000 21.240000 35.872002 18.410460 # Oc
165 8 -0.899000 4.721000 6.715000 23.238461 # Oa
166 8 -0.899000 17.777000 29.330000 23.238461 # Oa
167 8 -0.899000 3.455000 7.631000 20.933460 # Oa
168 8 -0.899000 16.511000 30.246000 20.933460 # Oa
169 10 -0.903000 4.874000 9.358000 23.088459 # Oc
170 10 -0.903000 17.930000 31.973000 23.088459 # Oc
171 10 -0.903000 5.668000 6.177000 20.783461 # Oc
172 10 -0.903000 18.725000 28.792000 20.783461 # Oc
173 3 0.456000 5.672000 10.284000 23.664459 # Cc
174 3 0.456000 18.729000 32.898998 23.664459 # Cc
175 1 0.900000 7.353000 13.445000 22.444460 # Ca
176 1 0.900000 20.409000 36.060001 22.444460 # Ca
177 2 -0.314000 6.959000 12.368000 23.384460 # Cb
178 2 -0.314000 20.016001 34.983002 23.384460 # Cb
179 3 0.456000 7.384000 12.331000 17.835461 # Cc
180 3 0.456000 20.441000 34.945999 17.835461 # Cc
181 4 -0.234000 6.125000 11.357000 22.889460 # Cd
182 4 -0.234000 19.181000 33.972000 22.889460 # Cd
183 6 0.186000 5.809000 11.409000 21.849461 # H
184 6 0.186000 18.865999 34.023998 21.849461 # H
185 9 -0.752000 6.908000 13.475000 21.254459 # Ob
186 9 -0.752000 19.965000 36.090000 21.254459 # Ob
187 8 -0.899000 8.175000 14.346000 22.871460 # Oa
188 8 -0.899000 21.232000 36.960999 22.871460 # Oa
189 8 -0.899000 8.336000 15.900000 18.260460 # Oa
190 8 -0.899000 21.393000 38.514999 18.260460 # Oa
191 8 -0.899000 9.602000 14.984000 20.566460 # Oa
192 8 -0.899000 22.659000 37.598999 20.566460 # Oa
193 10 -0.903000 7.389000 16.438000 20.716461 # Oc
194 10 -0.903000 20.445999 39.053001 20.716461 # Oc
195 8 -0.899000 9.602000 30.059999 18.260460 # Oa
196 8 -0.899000 22.659000 7.445000 18.260460 # Oa
197 8 -0.899000 8.336000 30.976999 22.871460 # Oa
198 8 -0.899000 21.393000 8.362000 22.871460 # Oa
199 8 -0.899000 4.721000 21.791000 20.933460 # Oa
200 8 -0.899000 17.777000 44.405998 20.933460 # Oa
201 10 -0.903000 5.668000 21.254000 18.477459 # Oc
202 10 -0.903000 18.725000 43.868999 18.477459 # Oc
203 8 -0.899000 8.336000 0.824000 20.566460 # Oa
204 8 -0.899000 21.393000 23.438999 20.566460 # Oa
205 10 -0.903000 7.389000 1.361000 23.021460 # Oc
206 10 -0.903000 20.445999 23.976000 23.021460 # Oc
207 10 -0.903000 4.874000 39.512001 18.477459 # Oc
208 10 -0.903000 17.930000 16.896999 18.477459 # Oc
209 1 0.900000 5.704000 39.324001 21.360460 # Ca
210 1 0.900000 18.761000 16.709000 21.360460 # Ca
211 2 -0.314000 6.098000 40.401001 20.421459 # Cb
212 2 -0.314000 19.155001 17.785999 20.421459 # Cb
213 3 0.456000 5.672000 40.438000 19.053459 # Cc
214 3 0.456000 18.729000 17.823000 19.053459 # Cc
215 4 -0.234000 6.932000 41.410999 20.916460 # Cd
216 4 -0.234000 19.989000 18.796000 20.916460 # Cd
217 6 0.186000 7.248000 41.359001 21.955460 # H
218 6 0.186000 20.305000 18.743999 21.955460 # H
219 9 -0.752000 6.149000 39.292999 22.550461 # Ob
220 9 -0.752000 19.205999 16.677999 22.550461 # Ob
221 8 -0.899000 4.882000 38.423000 20.933460 # Oa
222 8 -0.899000 17.938000 15.808000 20.933460 # Oa
223 2 -0.314000 6.959000 42.521000 18.773460 # Cb
224 2 -0.314000 20.016001 19.906000 18.773460 # Cb
225 3 0.456000 7.384000 42.484001 20.140461 # Cc
226 3 0.456000 20.441000 19.868999 20.140461 # Cc
227 4 -0.234000 6.125000 41.509998 18.277460 # Cd
228 4 -0.234000 19.181000 18.895000 18.277460 # Cd
229 8 -0.899000 8.175000 44.499001 18.260460 # Oa
230 8 -0.899000 21.232000 21.884001 18.260460 # Oa
231 10 -0.903000 8.183000 43.410000 20.716461 # Oc
232 10 -0.903000 21.240000 20.795000 20.716461 # Oc
233 10 -0.903000 5.668000 36.330002 23.088459 # Oc
234 10 -0.903000 18.725000 13.715000 23.088459 # Oc
235 1 0.900000 7.353000 43.598000 17.833460 # Ca
236 1 0.900000 20.409000 20.983000 17.833460 # Ca
237 9 -0.752000 6.908000 43.627998 23.559460 # Ob
238 9 -0.752000 19.965000 21.013000 23.559460 # Ob
239 8 -0.899000 9.602000 45.137001 22.871460 # Oa
240 8 -0.899000 22.659000 22.521999 22.871460 # Oa
241 8 -0.899000 4.721000 36.868000 18.627460 # Oa
242 8 -0.899000 17.778000 14.253000 18.627460 # Oa
243 8 -0.899000 3.455000 37.785000 23.238461 # Oa
244 8 -0.899000 16.511000 15.170000 23.238461 # Oa
245 10 -0.903000 2.515000 22.156000 23.088459 # Oc
246 10 -0.903000 15.572000 44.771000 23.088459 # Oc
247 3 0.456000 1.314000 22.385000 23.664459 # Cc
248 3 0.456000 14.371000 45.000000 23.664459 # Cc
249 1 0.900000 10.794000 44.875000 22.444460 # Ca
250 1 0.900000 23.851000 22.260000 22.444460 # Ca
251 2 -0.314000 11.924000 45.073002 23.384460 # Cb
252 2 -0.314000 24.980000 22.458000 23.384460 # Cb
253 4 -0.234000 0.159000 22.240999 22.889460 # Cd
254 4 -0.234000 13.216000 44.855999 22.889460 # Cd
255 6 0.186000 0.271000 21.941000 21.849461 # H
256 6 0.186000 13.328000 44.556000 21.849461 # H
257 9 -0.752000 10.990000 44.474998 21.254459 # Ob
258 9 -0.752000 24.047001 21.860001 21.254459 # Ob
259 3 0.456000 6.070000 35.174999 23.664459 # Cc
260 3 0.456000 19.127001 12.560000 23.664459 # Cc
261 1 0.900000 7.967000 32.139999 22.444460 # Ca
262 1 0.900000 21.024000 9.525000 22.444460 # Ca
263 2 -0.314000 7.231000 33.020000 23.384460 # Cb
264 2 -0.314000 20.288000 10.405000 23.384460 # Cb
265 4 -0.234000 6.773000 34.248001 22.889460 # Cd
266 4 -0.234000 19.830000 11.633000 22.889460 # Cd
267 6 0.186000 6.977000 34.494999 21.849461 # H
268 6 0.186000 20.033001 11.880000 21.849461 # H
269 9 -0.752000 8.216000 32.509998 21.254459 # Ob
270 9 -0.752000 21.273001 9.895000 21.254459 # Ob
271 10 -0.903000 10.541000 30.612000 20.716461 # Oc
272 10 -0.903000 23.598000 7.997000 20.716461 # Oc
273 1 0.900000 5.090000 35.705002 19.055460 # Ca
274 1 0.900000 18.146000 13.090000 19.055460 # Ca
275 2 -0.314000 5.826000 34.825001 18.115459 # Cb
276 2 -0.314000 18.882000 12.210000 18.115459 # Cb
277 4 -0.234000 6.284000 33.597000 18.610460 # Cd
278 4 -0.234000 19.341000 10.982000 18.610460 # Cd
279 6 0.186000 6.080000 33.349998 19.650459 # H
280 6 0.186000 19.136999 10.735000 19.650459 # H
281 9 -0.752000 4.841000 35.334999 20.245461 # Ob
282 9 -0.752000 17.898001 12.720000 20.245461 # Ob
283 10 -0.903000 2.515000 37.233002 20.783461 # Oc
284 10 -0.903000 15.572000 14.618000 20.783461 # Oc
285 9 -0.752000 2.067000 38.446999 17.939461 # Ob
286 9 -0.752000 15.124000 15.832000 17.939461 # Ob
287 1 0.900000 2.263000 38.046001 23.666460 # Ca
288 1 0.900000 15.320000 15.431000 23.666460 # Ca
289 2 -0.314000 1.133000 37.848999 22.726460 # Cb
290 2 -0.314000 14.190000 15.234000 22.726460 # Cb
291 3 0.456000 1.314000 37.462002 21.358459 # Cc
292 3 0.456000 14.371000 14.847000 21.358459 # Cc
293 4 -0.234000 12.898000 15.451000 23.221460 # Cd
294 4 -0.234000 25.954000 38.066002 23.221460 # Cd
295 6 0.186000 12.785000 15.751000 17.344460 # H
296 6 0.186000 25.841999 38.366001 17.344460 # H
297 1 0.900000 10.794000 14.722000 20.138460 # Ca
298 1 0.900000 23.851000 37.337002 20.138460 # Ca
299 2 -0.314000 11.924000 14.919000 21.078461 # Cb
300 2 -0.314000 24.980000 37.534000 21.078461 # Cb
301 3 0.456000 11.743000 15.306000 22.446461 # Cc
302 3 0.456000 24.799000 37.921001 22.446461 # Cc
303 4 -0.234000 0.159000 37.317001 20.583460 # Cd
304 4 -0.234000 13.216000 14.702000 20.583460 # Cd
305 6 0.186000 0.272000 37.016998 19.543461 # H
306 6 0.186000 13.328000 14.402000 19.543461 # H
307 9 -0.752000 10.990000 14.322000 18.948460 # Ob
308 9 -0.752000 24.047001 36.937000 18.948460 # Ob
309 10 -0.903000 10.541000 15.535000 23.021460 # Oc
310 10 -0.903000 23.598000 38.150002 23.021460 # Oc
311 9 -0.752000 4.841000 5.182000 17.939461 # Ob
312 9 -0.752000 17.898001 27.797001 17.939461 # Ob
313 10 -0.903000 2.515000 7.080000 18.477459 # Oc
314 10 -0.903000 15.572000 29.695000 18.477459 # Oc
315 1 0.900000 5.090000 5.552000 23.666460 # Ca
316 1 0.900000 18.146000 28.167000 23.666460 # Ca
317 2 -0.314000 5.826000 4.672000 22.726460 # Cb
318 2 -0.314000 18.882000 27.287001 22.726460 # Cb
319 3 0.456000 6.070000 5.022000 21.358459 # Cc
320 3 0.456000 19.127001 27.636999 21.358459 # Cc
321 4 -0.234000 6.284000 3.444000 23.221460 # Cd
322 4 -0.234000 19.340000 26.059000 23.221460 # Cd
323 6 0.186000 6.080000 3.197000 17.344460 # H
324 6 0.186000 19.136999 25.812000 17.344460 # H
325 1 0.900000 7.967000 1.987000 20.138460 # Ca
326 1 0.900000 21.024000 24.601999 20.138460 # Ca
327 2 -0.314000 7.231000 2.866000 21.078461 # Cb
328 2 -0.314000 20.288000 25.481001 21.078461 # Cb
329 3 0.456000 6.987000 2.516000 22.446461 # Cc
330 3 0.456000 20.042999 25.131001 22.446461 # Cc
331 4 -0.234000 6.773000 4.094000 20.583460 # Cd
332 4 -0.234000 19.830000 26.709000 20.583460 # Cd
333 6 0.186000 6.977000 4.341000 19.543461 # H
334 6 0.186000 20.033001 26.955999 19.543461 # H
335 9 -0.752000 8.216000 2.357000 18.948460 # Ob
336 9 -0.752000 21.273001 24.972000 18.948460 # Ob
337 1 0.900000 2.263000 7.893000 21.360460 # Ca
338 1 0.900000 15.320000 30.507999 21.360460 # Ca
339 2 -0.314000 1.133000 7.696000 20.421459 # Cb
340 2 -0.314000 14.190000 30.311001 20.421459 # Cb
341 3 0.456000 1.314000 7.309000 19.053459 # Cc
342 3 0.456000 14.371000 29.924000 19.053459 # Cc
343 4 -0.234000 12.898000 30.528000 20.916460 # Cd
344 4 -0.234000 25.954000 7.913000 20.916460 # Cd
345 6 0.186000 12.785000 30.827999 21.955460 # H
346 6 0.186000 25.841999 8.213000 21.955460 # H
347 9 -0.752000 2.067000 8.293000 22.550461 # Ob
348 9 -0.752000 15.124000 30.908001 22.550461 # Ob
349 2 -0.314000 11.924000 29.996000 18.773460 # Cb
350 2 -0.314000 24.980000 7.381000 18.773460 # Cb
351 3 0.456000 11.743000 30.382999 20.140461 # Cc
352 3 0.456000 24.799000 7.768000 20.140461 # Cc
353 4 -0.234000 0.159000 7.164000 18.277460 # Cd
354 4 -0.234000 13.216000 29.778999 18.277460 # Cd
355 1 0.900000 10.794000 29.799000 17.833460 # Ca
356 1 0.900000 23.851000 7.184000 17.833460 # Ca
357 9 -0.752000 10.990000 29.398001 23.559460 # Ob
358 9 -0.752000 24.047001 6.783000 23.559460 # Ob
359 1 0.900000 5.090000 20.628000 21.360460 # Ca
360 1 0.900000 18.146000 43.243000 21.360460 # Ca
361 2 -0.314000 5.826000 19.749001 20.421459 # Cb
362 2 -0.314000 18.882000 42.363998 20.421459 # Cb
363 3 0.456000 6.070000 20.099001 19.053459 # Cc
364 3 0.456000 19.127001 42.714001 19.053459 # Cc
365 4 -0.234000 6.284000 18.521000 20.916460 # Cd
366 4 -0.234000 19.341000 41.136002 20.916460 # Cd
367 6 0.186000 6.080000 18.274000 21.955460 # H
368 6 0.186000 19.136999 40.889000 21.955460 # H
369 9 -0.752000 4.841000 20.257999 22.550461 # Ob
370 9 -0.752000 17.898001 42.873001 22.550461 # Ob
371 2 -0.314000 7.231000 17.943001 18.773460 # Cb
372 2 -0.314000 20.288000 40.557999 18.773460 # Cb
373 3 0.456000 6.987000 17.593000 20.140461 # Cc
374 3 0.456000 20.042999 40.208000 20.140461 # Cc
375 4 -0.234000 6.773000 19.171000 18.277460 # Cd
376 4 -0.234000 19.830000 41.785999 18.277460 # Cd
377 1 0.900000 7.967000 17.063000 17.833460 # Ca
378 1 0.900000 21.024000 39.678001 17.833460 # Ca
379 9 -0.752000 8.216000 17.433001 23.559460 # Ob
380 9 -0.752000 21.273001 40.048000 23.559460 # Ob
381 9 -0.752000 6.149000 24.216999 17.939461 # Ob
382 9 -0.752000 19.205999 1.602000 17.939461 # Ob
383 8 -0.899000 3.455000 22.708000 18.627460 # Oa
384 8 -0.899000 16.511000 0.093000 18.627460 # Oa
385 10 -0.903000 4.874000 24.434999 20.783461 # Oc
386 10 -0.903000 17.930000 1.820000 20.783461 # Oc
387 1 0.900000 5.704000 24.247000 23.666460 # Ca
388 1 0.900000 18.761000 1.632000 23.666460 # Ca
389 2 -0.314000 6.098000 25.323999 22.726460 # Cb
390 2 -0.314000 19.155001 2.709000 22.726460 # Cb
391 3 0.456000 5.672000 25.361000 21.358459 # Cc
392 3 0.456000 18.729000 2.746000 21.358459 # Cc
393 4 -0.234000 6.932000 26.334999 23.221460 # Cd
394 4 -0.234000 19.989000 3.720000 23.221460 # Cd
395 6 0.186000 7.248000 26.282000 17.344460 # H
396 6 0.186000 20.305000 3.667000 17.344460 # H
397 8 -0.899000 4.881000 23.346001 23.238461 # Oa
398 8 -0.899000 17.938000 0.731000 23.238461 # Oa
399 1 0.900000 7.353000 28.521000 20.138460 # Ca
400 1 0.900000 20.409000 5.906000 20.138460 # Ca
401 2 -0.314000 6.959000 27.444000 21.078461 # Cb
402 2 -0.314000 20.016001 4.829000 21.078461 # Cb
403 3 0.456000 7.384000 27.407000 22.446461 # Cc
404 3 0.456000 20.441000 4.792000 22.446461 # Cc
405 4 -0.234000 6.125000 26.434000 20.583460 # Cd
406 4 -0.234000 19.181000 3.819000 20.583460 # Cd
407 6 0.186000 5.809000 26.486000 19.543461 # H
408 6 0.186000 18.865999 3.871000 19.543461 # H
409 9 -0.752000 6.908000 28.552000 18.948460 # Ob
410 9 -0.752000 19.965000 5.937000 18.948460 # Ob
411 8 -0.899000 8.175000 29.422001 20.566460 # Oa
412 8 -0.899000 21.232000 6.807000 20.566460 # Oa
413 10 -0.903000 8.183000 28.333000 23.021460 # Oc
414 10 -0.903000 21.240000 5.718000 23.021460 # Oc
415 1 0.900000 2.263000 22.969999 19.055460 # Ca
416 1 0.900000 15.320000 0.355000 19.055460 # Ca
417 2 -0.314000 1.133000 22.771999 18.115459 # Cb
418 2 -0.314000 14.190000 0.157000 18.115459 # Cb
419 4 -0.234000 12.898000 0.374000 18.610460 # Cd
420 4 -0.234000 25.954000 22.989000 18.610460 # Cd
421 6 0.186000 12.785000 0.674000 19.650459 # H
422 6 0.186000 25.841999 23.289000 19.650459 # H
423 9 -0.752000 2.067000 23.370001 20.245461 # Ob
424 9 -0.752000 15.124000 0.755000 20.245461 # Ob
425 10 -0.903000 7.389000 31.514999 18.410460 # Oc
426 10 -0.903000 20.445999 8.900000 18.410460 # Oc
427 6 0.186000 5.809000 41.563000 24.154461 # H
428 6 0.186000 18.865999 18.948000 24.154461 # H
429 10 -0.903000 10.541000 0.459000 18.410460 # Oc
430 10 -0.903000 23.598000 23.073999 18.410460 # Oc
431 3 0.456000 11.743000 0.230000 17.835461 # Cc
432 3 0.456000 24.799999 22.844999 17.835461 # Cc
433 3 0.456000 6.986000 32.669998 17.835461 # Cc
434 3 0.456000 20.042999 10.055000 17.835461 # Cc
435 6 0.186000 0.271000 6.864000 24.154461 # H
436 6 0.186000 13.328000 29.479000 24.154461 # H
437 6 0.186000 6.977000 19.417999 24.154461 # H
438 6 0.186000 20.033001 42.033001 24.154461 # H
439 7 1.560000 5.314000 7.966000 0.934500 # Mg
440 7 1.560000 18.371000 30.580999 0.934500 # Mg
441 7 1.560000 4.242000 6.491000 26.295460 # Mg
442 7 1.560000 17.299000 29.106001 26.295460 # Mg
443 7 1.560000 3.501000 8.158000 3.240500 # Mg
444 7 1.560000 16.558001 30.773001 3.240500 # Mg
445 7 1.560000 7.743000 14.649000 26.732460 # Mg
446 7 1.560000 20.799000 37.264000 26.732460 # Mg
447 7 1.560000 8.815000 16.124001 1.370500 # Mg
448 7 1.560000 21.872000 38.738998 1.370500 # Mg
449 7 1.560000 9.556000 14.457000 24.426460 # Mg
450 7 1.560000 22.613001 37.071999 24.426460 # Mg
451 7 1.560000 8.815000 31.200001 26.732460 # Mg
452 7 1.560000 21.872000 8.585000 26.732460 # Mg
453 7 1.560000 9.556000 29.534000 1.370500 # Mg
454 7 1.560000 22.613001 6.919000 1.370500 # Mg
455 7 1.560000 4.242000 21.568001 3.240500 # Mg
456 7 1.560000 17.299000 44.182999 3.240500 # Mg
457 7 1.560000 8.815000 1.047000 24.426460 # Mg
458 7 1.560000 21.872000 23.662001 24.426460 # Mg
459 7 1.560000 5.314000 38.118999 3.240500 # Mg
460 7 1.560000 18.371000 15.504000 3.240500 # Mg
461 7 1.560000 7.743000 44.801998 1.370500 # Mg
462 7 1.560000 20.799000 22.187000 1.370500 # Mg
463 7 1.560000 9.556000 44.611000 26.732460 # Mg
464 7 1.560000 22.613001 21.996000 26.732460 # Mg
465 7 1.560000 3.501000 38.311001 26.295460 # Mg
466 7 1.560000 16.558001 15.696000 26.295460 # Mg
467 7 1.560000 4.242000 36.645000 0.934500 # Mg
468 7 1.560000 17.299000 14.030000 0.934500 # Mg
469 7 1.560000 5.314000 23.042999 26.295460 # Mg
470 7 1.560000 18.371000 0.428000 26.295460 # Mg
471 7 1.560000 3.501000 23.233999 0.934500 # Mg
472 7 1.560000 16.558001 0.619000 0.934500 # Mg
473 7 1.560000 7.743000 29.726000 24.426460 # Mg
474 7 1.560000 20.799000 7.111000 24.426460 # Mg
475 1 0.900000 5.704000 9.170000 25.972460 # Ca
476 1 0.900000 18.761000 31.785000 25.972460 # Ca
477 2 -0.314000 6.098000 10.247000 25.032459 # Cb
478 2 -0.314000 19.155001 32.862000 25.032459 # Cb
479 4 -0.234000 6.932000 11.258000 25.527460 # Cd
480 4 -0.234000 19.989000 33.873001 25.527460 # Cd
481 6 0.186000 7.248000 11.206000 26.567459 # H
482 6 0.186000 20.305000 33.820999 26.567459 # H
483 9 -0.752000 6.149000 9.140000 27.162460 # Ob
484 9 -0.752000 19.205999 31.754999 27.162460 # Ob
485 8 -0.899000 4.881000 8.269000 25.544460 # Oa
486 8 -0.899000 17.938000 30.884001 25.544460 # Oa
487 10 -0.903000 8.183000 13.257000 25.327459 # Oc
488 10 -0.903000 21.240000 35.872002 25.327459 # Oc
489 8 -0.899000 4.721000 6.715000 2.488500 # Oa
490 8 -0.899000 17.777000 29.330000 2.488500 # Oa
491 8 -0.899000 3.455000 7.631000 0.183500 # Oa
492 8 -0.899000 16.511000 30.246000 0.183500 # Oa
493 10 -0.903000 4.874000 9.358000 2.338500 # Oc
494 10 -0.903000 17.930000 31.973000 2.338500 # Oc
495 10 -0.903000 5.668000 6.177000 0.033500 # Oc
496 10 -0.903000 18.725000 28.792000 0.033500 # Oc
497 3 0.456000 5.672000 10.284000 2.914500 # Cc
498 3 0.456000 18.729000 32.898998 2.914500 # Cc
499 1 0.900000 7.353000 13.445000 1.694500 # Ca
500 1 0.900000 20.409000 36.060001 1.694500 # Ca
501 2 -0.314000 6.959000 12.368000 2.634500 # Cb
502 2 -0.314000 20.016001 34.983002 2.634500 # Cb
503 3 0.456000 7.384000 12.331000 24.752460 # Cc
504 3 0.456000 20.441000 34.945999 24.752460 # Cc
505 4 -0.234000 6.125000 11.357000 2.139500 # Cd
506 4 -0.234000 19.181000 33.972000 2.139500 # Cd
507 6 0.186000 5.809000 11.409000 1.099500 # H
508 6 0.186000 18.865999 34.023998 1.099500 # H
509 9 -0.752000 6.908000 13.475000 0.504500 # Ob
510 9 -0.752000 19.965000 36.090000 0.504500 # Ob
511 8 -0.899000 8.175000 14.346000 2.121500 # Oa
512 8 -0.899000 21.232000 36.960999 2.121500 # Oa
513 8 -0.899000 8.336000 15.900000 25.177460 # Oa
514 8 -0.899000 21.393000 38.514999 25.177460 # Oa
515 8 -0.899000 9.602000 14.984000 27.483459 # Oa
516 8 -0.899000 22.659000 37.598999 27.483459 # Oa
517 10 -0.903000 7.389000 16.438000 27.633459 # Oc
518 10 -0.903000 20.445999 39.053001 27.633459 # Oc
519 8 -0.899000 9.602000 30.059999 25.177460 # Oa
520 8 -0.899000 22.659000 7.445000 25.177460 # Oa
521 8 -0.899000 8.336000 30.976999 2.121500 # Oa
522 8 -0.899000 21.393000 8.362000 2.121500 # Oa
523 8 -0.899000 4.721000 21.791000 0.183500 # Oa
524 8 -0.899000 17.777000 44.405998 0.183500 # Oa
525 10 -0.903000 5.668000 21.254000 25.394459 # Oc
526 10 -0.903000 18.725000 43.868999 25.394459 # Oc
527 8 -0.899000 8.336000 0.824000 27.483459 # Oa
528 8 -0.899000 21.393000 23.438999 27.483459 # Oa
529 10 -0.903000 7.389000 1.361000 2.271500 # Oc
530 10 -0.903000 20.445999 23.976000 2.271500 # Oc
531 10 -0.903000 4.874000 39.512001 25.394459 # Oc
532 10 -0.903000 17.930000 16.896999 25.394459 # Oc
533 1 0.900000 5.704000 39.324001 0.610500 # Ca
534 1 0.900000 18.761000 16.709000 0.610500 # Ca
535 2 -0.314000 6.098000 40.401001 27.338459 # Cb
536 2 -0.314000 19.155001 17.785999 27.338459 # Cb
537 3 0.456000 5.672000 40.438000 25.970459 # Cc
538 3 0.456000 18.729000 17.823000 25.970459 # Cc
539 4 -0.234000 6.932000 41.410999 0.166500 # Cd
540 4 -0.234000 19.989000 18.796000 0.166500 # Cd
541 6 0.186000 7.248000 41.359001 1.205500 # H
542 6 0.186000 20.305000 18.743999 1.205500 # H
543 9 -0.752000 6.149000 39.292999 1.800500 # Ob
544 9 -0.752000 19.205999 16.677999 1.800500 # Ob
545 8 -0.899000 4.882000 38.423000 0.183500 # Oa
546 8 -0.899000 17.938000 15.808000 0.183500 # Oa
547 2 -0.314000 6.959000 42.521000 25.690460 # Cb
548 2 -0.314000 20.016001 19.906000 25.690460 # Cb
549 3 0.456000 7.384000 42.484001 27.057461 # Cc
550 3 0.456000 20.441000 19.868999 27.057461 # Cc
551 4 -0.234000 6.125000 41.509998 25.194460 # Cd
552 4 -0.234000 19.181000 18.895000 25.194460 # Cd
553 8 -0.899000 8.175000 44.499001 25.177460 # Oa
554 8 -0.899000 21.232000 21.884001 25.177460 # Oa
555 10 -0.903000 8.183000 43.410000 27.633459 # Oc
556 10 -0.903000 21.240000 20.795000 27.633459 # Oc
557 10 -0.903000 5.668000 36.330002 2.338500 # Oc
558 10 -0.903000 18.725000 13.715000 2.338500 # Oc
559 1 0.900000 7.353000 43.598000 24.750460 # Ca
560 1 0.900000 20.409000 20.983000 24.750460 # Ca
561 9 -0.752000 6.908000 43.627998 2.809500 # Ob
562 9 -0.752000 19.965000 21.013000 2.809500 # Ob
563 8 -0.899000 9.602000 45.137001 2.121500 # Oa
564 8 -0.899000 22.659000 22.521999 2.121500 # Oa
565 8 -0.899000 4.721000 36.868000 25.544460 # Oa
566 8 -0.899000 17.778000 14.253000 25.544460 # Oa
567 8 -0.899000 3.455000 37.785000 2.488500 # Oa
568 8 -0.899000 16.511000 15.170000 2.488500 # Oa
569 10 -0.903000 2.515000 22.156000 2.338500 # Oc
570 10 -0.903000 15.572000 44.771000 2.338500 # Oc
571 3 0.456000 1.314000 22.385000 2.914500 # Cc
572 3 0.456000 14.371000 45.000000 2.914500 # Cc
573 1 0.900000 10.794000 44.875000 1.694500 # Ca
574 1 0.900000 23.851000 22.260000 1.694500 # Ca
575 2 -0.314000 11.924000 45.073002 2.634500 # Cb
576 2 -0.314000 24.980000 22.458000 2.634500 # Cb
577 4 -0.234000 0.159000 22.240999 2.139500 # Cd
578 4 -0.234000 13.216000 44.855999 2.139500 # Cd
579 6 0.186000 0.271000 21.941000 1.099500 # H
580 6 0.186000 13.328000 44.556000 1.099500 # H
581 9 -0.752000 10.990000 44.474998 0.504500 # Ob
582 9 -0.752000 24.047001 21.860001 0.504500 # Ob
583 3 0.456000 6.070000 35.174999 2.914500 # Cc
584 3 0.456000 19.127001 12.560000 2.914500 # Cc
585 1 0.900000 7.967000 32.139999 1.694500 # Ca
586 1 0.900000 21.024000 9.525000 1.694500 # Ca
587 2 -0.314000 7.231000 33.020000 2.634500 # Cb
588 2 -0.314000 20.288000 10.405000 2.634500 # Cb
589 4 -0.234000 6.773000 34.248001 2.139500 # Cd