LAMMPS data file. CGCMM style. atom_style charge generated by VMD/TopoTools v1.5 on Mon Oct 10 14:43:24 CEST 2016
 1410 atoms
 0 bonds
 0 angles
 0 dihedrals
 0 impropers
 11 atom types
 0 bond types
 0 angle types
 0 dihedral types
 0 improper types
 0.444700 26.558700  xlo xhi
 0.314250 45.544250  ylo yhi
 -0.000000 27.667000  zlo zhi

# Pair Coeffs
#
# 1  Ca
# 2  Cb
# 3  Cc
# 4  Cd
# 5  Cg
# 6  H
# 7  Mg
# 8  Oa
# 9  Ob
# 10  Oc
# 11  Og

 Masses

 1 12.011000 # Ca
 2 12.011000 # Cb
 3 12.011000 # Cc
 4 12.011000 # Cd
 5 12.011000 # Cg
 6 1.008000 # H
 7 24.305000 # Mg
 8 15.999000 # Oa
 9 15.999000 # Ob
 10 15.999000 # Oc
 11 15.999000 # Og

 Atoms

1 1 11 -0.325600 26.114401 45.230499 16.376999 # Og
2 1 5 0.651200 26.114401 45.230499 15.217000 # Cg
3 1 11 -0.325600 26.114401 45.230499 14.057000 # Og
4 2 11 -0.325600 26.114401 45.230499 19.144001 # Og
5 2 5 0.651200 26.114401 45.230499 17.984001 # Cg
6 2 11 -0.325600 26.114401 45.230499 16.823999 # Og
7 3 11 -0.325600 26.114401 45.230499 21.910000 # Og
8 3 5 0.651200 26.114401 45.230499 20.750000 # Cg
9 3 11 -0.325600 26.114401 45.230499 19.590000 # Og
10 4 11 -0.325600 26.114401 45.230499 24.677000 # Og
11 4 5 0.651200 26.114401 45.230499 23.517000 # Cg
12 4 11 -0.325600 26.114401 45.230499 22.357000 # Og
13 5 11 -0.325600 26.114401 45.230499 27.444000 # Og
14 5 5 0.651200 26.114401 45.230499 26.284000 # Cg
15 5 11 -0.325600 26.114401 45.230499 25.124001 # Og
16 6 11 -0.325600 26.114401 45.230499 2.543000 # Og
17 6 5 0.651200 26.114401 45.230499 1.383000 # Cg
18 6 11 -0.325600 26.114401 45.230499 0.223000 # Og
19 7 11 -0.325600 26.114401 45.230499 5.310000 # Og
20 7 5 0.651200 26.114401 45.230499 4.150000 # Cg
21 7 11 -0.325600 26.114401 45.230499 2.990000 # Og
22 8 11 -0.325600 26.114401 45.230499 8.077000 # Og
23 8 5 0.651200 26.114401 45.230499 6.917000 # Cg
24 8 11 -0.325600 26.114401 45.230499 5.757000 # Og
25 9 11 -0.325600 26.114401 45.230499 10.843000 # Og
26 9 5 0.651200 26.114401 45.230499 9.683000 # Cg
27 9 11 -0.325600 26.114401 45.230499 8.523000 # Og
28 10 11 -0.325600 26.114401 45.230499 13.610000 # Og
29 10 5 0.651200 26.114401 45.230499 12.450000 # Cg
30 10 11 -0.325600 26.114401 45.230499 11.290000 # Og
31 11 11 -0.325600 26.114401 22.614500 16.376999 # Og
32 11 5 0.651200 26.114401 22.614500 15.217000 # Cg
33 11 11 -0.325600 26.114401 22.614500 14.057000 # Og
34 12 11 -0.325600 26.114401 22.614500 19.144001 # Og
35 12 5 0.651200 26.114401 22.614500 17.984001 # Cg
36 12 11 -0.325600 26.114401 22.614500 16.823999 # Og
37 13 11 -0.325600 26.114401 22.614500 21.910000 # Og
38 13 5 0.651200 26.114401 22.614500 20.750000 # Cg
39 13 11 -0.325600 26.114401 22.614500 19.590000 # Og
40 14 11 -0.325600 26.114401 22.614500 24.677000 # Og
41 14 5 0.651200 26.114401 22.614500 23.517000 # Cg
42 14 11 -0.325600 26.114401 22.614500 22.357000 # Og
43 15 11 -0.325600 26.114401 22.614500 27.444000 # Og
44 15 5 0.651200 26.114401 22.614500 26.284000 # Cg
45 15 11 -0.325600 26.114401 22.614500 25.124001 # Og
46 16 11 -0.325600 26.114401 22.614500 2.543000 # Og
47 16 5 0.651200 26.114401 22.614500 1.383000 # Cg
48 16 11 -0.325600 26.114401 22.614500 0.223000 # Og
49 17 11 -0.325600 26.114401 22.614500 5.310000 # Og
50 17 5 0.651200 26.114401 22.614500 4.150000 # Cg
51 17 11 -0.325600 26.114401 22.614500 2.990000 # Og
52 18 11 -0.325600 26.114401 22.614500 8.077000 # Og
53 18 5 0.651200 26.114401 22.614500 6.917000 # Cg
54 18 11 -0.325600 26.114401 22.614500 5.757000 # Og
55 19 11 -0.325600 26.114401 22.614500 10.843000 # Og
56 19 5 0.651200 26.114401 22.614500 9.683000 # Cg
57 19 11 -0.325600 26.114401 22.614500 8.523000 # Og
58 20 11 -0.325600 26.114401 22.614500 13.610000 # Og
59 20 5 0.651200 26.114401 22.614500 12.450000 # Cg
60 20 11 -0.325600 26.114401 22.614500 11.290000 # Og
61 21 11 -0.325600 13.056400 45.230499 16.376999 # Og
62 21 5 0.651200 13.056400 45.230499 15.217000 # Cg
63 21 11 -0.325600 13.056400 45.230499 14.057000 # Og
64 22 11 -0.325600 13.056400 45.230499 19.144001 # Og
65 22 5 0.651200 13.056400 45.230499 17.984001 # Cg
66 22 11 -0.325600 13.056400 45.230499 16.823999 # Og
67 23 11 -0.325600 13.056400 45.230499 21.910000 # Og
68 23 5 0.651200 13.056400 45.230499 20.750000 # Cg
69 23 11 -0.325600 13.056400 45.230499 19.590000 # Og
70 24 11 -0.325600 13.056400 45.230499 24.677000 # Og
71 24 5 0.651200 13.056400 45.230499 23.517000 # Cg
72 24 11 -0.325600 13.056400 45.230499 22.357000 # Og
73 25 11 -0.325600 13.056400 45.230499 27.444000 # Og
74 25 5 0.651200 13.056400 45.230499 26.284000 # Cg
75 25 11 -0.325600 13.056400 45.230499 25.124001 # Og
76 26 11 -0.325600 13.056400 45.230499 2.543000 # Og
77 26 5 0.651200 13.056400 45.230499 1.383000 # Cg
78 26 11 -0.325600 13.056400 45.230499 0.223000 # Og
79 27 11 -0.325600 13.056400 45.230499 5.310000 # Og
80 27 5 0.651200 13.056400 45.230499 4.150000 # Cg
81 27 11 -0.325600 13.056400 45.230499 2.990000 # Og
82 28 11 -0.325600 13.056400 45.230499 8.077000 # Og
83 28 5 0.651200 13.056400 45.230499 6.917000 # Cg
84 28 11 -0.325600 13.056400 45.230499 5.757000 # Og
85 29 11 -0.325600 13.056400 45.230499 10.843000 # Og
86 29 5 0.651200 13.056400 45.230499 9.683000 # Cg
87 29 11 -0.325600 13.056400 45.230499 8.523000 # Og
88 30 11 -0.325600 13.056400 45.230499 13.610000 # Og
89 30 5 0.651200 13.056400 45.230499 12.450000 # Cg
90 30 11 -0.325600 13.056400 45.230499 11.290000 # Og
91 31 11 -0.325600 13.056400 22.614500 16.376999 # Og
92 31 5 0.651200 13.056400 22.614500 15.217000 # Cg
93 31 11 -0.325600 13.056400 22.614500 14.057000 # Og
94 32 11 -0.325600 13.056400 22.614500 19.144001 # Og
95 32 5 0.651200 13.056400 22.614500 17.984001 # Cg
96 32 11 -0.325600 13.056400 22.614500 16.823999 # Og
97 33 11 -0.325600 13.056400 22.614500 21.910000 # Og
98 33 5 0.651200 13.056400 22.614500 20.750000 # Cg
99 33 11 -0.325600 13.056400 22.614500 19.590000 # Og
100 34 11 -0.325600 13.056400 22.614500 24.677000 # Og
101 34 5 0.651200 13.056400 22.614500 23.517000 # Cg
102 34 11 -0.325600 13.056400 22.614500 22.357000 # Og
103 35 11 -0.325600 13.056400 22.614500 27.444000 # Og
104 35 5 0.651200 13.056400 22.614500 26.284000 # Cg
105 35 11 -0.325600 13.056400 22.614500 25.124001 # Og
106 36 11 -0.325600 13.056400 22.614500 2.543000 # Og
107 36 5 0.651200 13.056400 22.614500 1.383000 # Cg
108 36 11 -0.325600 13.056400 22.614500 0.223000 # Og
109 37 11 -0.325600 13.056400 22.614500 5.310000 # Og
110 37 5 0.651200 13.056400 22.614500 4.150000 # Cg
111 37 11 -0.325600 13.056400 22.614500 2.990000 # Og
112 38 11 -0.325600 13.056400 22.614500 8.077000 # Og
113 38 5 0.651200 13.056400 22.614500 6.917000 # Cg
114 38 11 -0.325600 13.056400 22.614500 5.757000 # Og
115 39 7 1.560000 5.314000 7.966000 21.684460 # Mg
116 39 7 1.560000 18.371000 30.580999 21.684460 # Mg
117 39 7 1.560000 4.242000 6.491000 19.378460 # Mg
118 39 7 1.560000 17.299000 29.106001 19.378460 # Mg
119 39 7 1.560000 3.501000 8.158000 23.990459 # Mg
120 39 7 1.560000 16.558001 30.773001 23.990459 # Mg
121 39 7 1.560000 7.743000 14.649000 19.815460 # Mg
122 39 7 1.560000 20.799000 37.264000 19.815460 # Mg
123 39 7 1.560000 8.815000 16.124001 22.120461 # Mg
124 39 7 1.560000 21.872000 38.738998 22.120461 # Mg
125 39 7 1.560000 9.556000 14.457000 17.509460 # Mg
126 39 7 1.560000 22.613001 37.071999 17.509460 # Mg
127 39 7 1.560000 8.815000 31.200001 19.815460 # Mg
128 39 7 1.560000 21.872000 8.585000 19.815460 # Mg
129 39 7 1.560000 9.556000 29.534000 22.120461 # Mg
130 39 7 1.560000 22.613001 6.919000 22.120461 # Mg
131 39 7 1.560000 4.242000 21.568001 23.990459 # Mg
132 39 7 1.560000 17.299000 44.182999 23.990459 # Mg
133 39 7 1.560000 8.815000 1.047000 17.509460 # Mg
134 39 7 1.560000 21.872000 23.662001 17.509460 # Mg
135 39 7 1.560000 5.314000 38.118999 23.990459 # Mg
136 39 7 1.560000 18.371000 15.504000 23.990459 # Mg
137 39 7 1.560000 7.743000 44.801998 22.120461 # Mg
138 39 7 1.560000 20.799000 22.187000 22.120461 # Mg
139 39 7 1.560000 9.556000 44.611000 19.815460 # Mg
140 39 7 1.560000 22.613001 21.996000 19.815460 # Mg
141 39 7 1.560000 3.501000 38.311001 19.378460 # Mg
142 39 7 1.560000 16.558001 15.696000 19.378460 # Mg
143 39 7 1.560000 4.242000 36.645000 21.684460 # Mg
144 39 7 1.560000 17.299000 14.030000 21.684460 # Mg
145 39 7 1.560000 5.314000 23.042999 19.378460 # Mg
146 39 7 1.560000 18.371000 0.428000 19.378460 # Mg
147 39 7 1.560000 3.501000 23.233999 21.684460 # Mg
148 39 7 1.560000 16.558001 0.619000 21.684460 # Mg
149 39 7 1.560000 7.743000 29.726000 17.509460 # Mg
150 39 7 1.560000 20.799000 7.111000 17.509460 # Mg
151 39 1 0.900000 5.704000 9.170000 19.055460 # Ca
152 39 1 0.900000 18.761000 31.785000 19.055460 # Ca
153 39 2 -0.314000 6.098000 10.247000 18.115459 # Cb
154 39 2 -0.314000 19.155001 32.862000 18.115459 # Cb
155 39 4 -0.234000 6.932000 11.258000 18.610460 # Cd
156 39 4 -0.234000 19.989000 33.873001 18.610460 # Cd
157 39 6 0.186000 7.248000 11.206000 19.650459 # H
158 39 6 0.186000 20.305000 33.820999 19.650459 # H
159 39 9 -0.752000 6.149000 9.140000 20.245461 # Ob
160 39 9 -0.752000 19.205999 31.754999 20.245461 # Ob
161 39 8 -0.899000 4.881000 8.269000 18.627460 # Oa
162 39 8 -0.899000 17.938000 30.884001 18.627460 # Oa
163 39 10 -0.903000 8.183000 13.257000 18.410460 # Oc
164 39 10 -0.903000 21.240000 35.872002 18.410460 # Oc
165 39 8 -0.899000 4.721000 6.715000 23.238461 # Oa
166 39 8 -0.899000 17.777000 29.330000 23.238461 # Oa
167 39 8 -0.899000 3.455000 7.631000 20.933460 # Oa
168 39 8 -0.899000 16.511000 30.246000 20.933460 # Oa
169 39 10 -0.903000 4.874000 9.358000 23.088459 # Oc
170 39 10 -0.903000 17.930000 31.973000 23.088459 # Oc
171 39 10 -0.903000 5.668000 6.177000 20.783461 # Oc
172 39 10 -0.903000 18.725000 28.792000 20.783461 # Oc
173 39 3 0.456000 5.672000 10.284000 23.664459 # Cc
174 39 3 0.456000 18.729000 32.898998 23.664459 # Cc
175 39 1 0.900000 7.353000 13.445000 22.444460 # Ca
176 39 1 0.900000 20.409000 36.060001 22.444460 # Ca
177 39 2 -0.314000 6.959000 12.368000 23.384460 # Cb
178 39 2 -0.314000 20.016001 34.983002 23.384460 # Cb
179 39 3 0.456000 7.384000 12.331000 17.835461 # Cc
180 39 3 0.456000 20.441000 34.945999 17.835461 # Cc
181 39 4 -0.234000 6.125000 11.357000 22.889460 # Cd
182 39 4 -0.234000 19.181000 33.972000 22.889460 # Cd
183 39 6 0.186000 5.809000 11.409000 21.849461 # H
184 39 6 0.186000 18.865999 34.023998 21.849461 # H
185 39 9 -0.752000 6.908000 13.475000 21.254459 # Ob
186 39 9 -0.752000 19.965000 36.090000 21.254459 # Ob
187 39 8 -0.899000 8.175000 14.346000 22.871460 # Oa
188 39 8 -0.899000 21.232000 36.960999 22.871460 # Oa
189 39 8 -0.899000 8.336000 15.900000 18.260460 # Oa
190 39 8 -0.899000 21.393000 38.514999 18.260460 # Oa
191 39 8 -0.899000 9.602000 14.984000 20.566460 # Oa
192 39 8 -0.899000 22.659000 37.598999 20.566460 # Oa
193 39 10 -0.903000 7.389000 16.438000 20.716461 # Oc
194 39 10 -0.903000 20.445999 39.053001 20.716461 # Oc
195 39 8 -0.899000 9.602000 30.059999 18.260460 # Oa
196 39 8 -0.899000 22.659000 7.445000 18.260460 # Oa
197 39 8 -0.899000 8.336000 30.976999 22.871460 # Oa
198 39 8 -0.899000 21.393000 8.362000 22.871460 # Oa
199 39 8 -0.899000 4.721000 21.791000 20.933460 # Oa
200 39 8 -0.899000 17.777000 44.405998 20.933460 # Oa
201 39 10 -0.903000 5.668000 21.254000 18.477459 # Oc
202 39 10 -0.903000 18.725000 43.868999 18.477459 # Oc
203 39 8 -0.899000 8.336000 0.824000 20.566460 # Oa
204 39 8 -0.899000 21.393000 23.438999 20.566460 # Oa
205 39 10 -0.903000 7.389000 1.361000 23.021460 # Oc
206 39 10 -0.903000 20.445999 23.976000 23.021460 # Oc
207 39 10 -0.903000 4.874000 39.512001 18.477459 # Oc
208 39 10 -0.903000 17.930000 16.896999 18.477459 # Oc
209 39 1 0.900000 5.704000 39.324001 21.360460 # Ca
210 39 1 0.900000 18.761000 16.709000 21.360460 # Ca
211 39 2 -0.314000 6.098000 40.401001 20.421459 # Cb
212 39 2 -0.314000 19.155001 17.785999 20.421459 # Cb
213 39 3 0.456000 5.672000 40.438000 19.053459 # Cc
214 39 3 0.456000 18.729000 17.823000 19.053459 # Cc
215 39 4 -0.234000 6.932000 41.410999 20.916460 # Cd
216 39 4 -0.234000 19.989000 18.796000 20.916460 # Cd
217 39 6 0.186000 7.248000 41.359001 21.955460 # H
218 39 6 0.186000 20.305000 18.743999 21.955460 # H
219 39 9 -0.752000 6.149000 39.292999 22.550461 # Ob
220 39 9 -0.752000 19.205999 16.677999 22.550461 # Ob
221 39 8 -0.899000 4.882000 38.423000 20.933460 # Oa
222 39 8 -0.899000 17.938000 15.808000 20.933460 # Oa
223 39 2 -0.314000 6.959000 42.521000 18.773460 # Cb
224 39 2 -0.314000 20.016001 19.906000 18.773460 # Cb
225 39 3 0.456000 7.384000 42.484001 20.140461 # Cc
226 39 3 0.456000 20.441000 19.868999 20.140461 # Cc
227 39 4 -0.234000 6.125000 41.509998 18.277460 # Cd
228 39 4 -0.234000 19.181000 18.895000 18.277460 # Cd
229 39 8 -0.899000 8.175000 44.499001 18.260460 # Oa
230 39 8 -0.899000 21.232000 21.884001 18.260460 # Oa
231 39 10 -0.903000 8.183000 43.410000 20.716461 # Oc
232 39 10 -0.903000 21.240000 20.795000 20.716461 # Oc
233 39 10 -0.903000 5.668000 36.330002 23.088459 # Oc
234 39 10 -0.903000 18.725000 13.715000 23.088459 # Oc
235 39 1 0.900000 7.353000 43.598000 17.833460 # Ca
236 39 1 0.900000 20.409000 20.983000 17.833460 # Ca
237 39 9 -0.752000 6.908000 43.627998 23.559460 # Ob
238 39 9 -0.752000 19.965000 21.013000 23.559460 # Ob
239 39 8 -0.899000 9.602000 45.137001 22.871460 # Oa
240 39 8 -0.899000 22.659000 22.521999 22.871460 # Oa
241 39 8 -0.899000 4.721000 36.868000 18.627460 # Oa
242 39 8 -0.899000 17.778000 14.253000 18.627460 # Oa
243 39 8 -0.899000 3.455000 37.785000 23.238461 # Oa
244 39 8 -0.899000 16.511000 15.170000 23.238461 # Oa
245 39 10 -0.903000 2.515000 22.156000 23.088459 # Oc
246 39 10 -0.903000 15.572000 44.771000 23.088459 # Oc
247 39 3 0.456000 1.314000 22.385000 23.664459 # Cc
248 39 3 0.456000 14.371000 45.000000 23.664459 # Cc
249 39 1 0.900000 10.794000 44.875000 22.444460 # Ca
250 39 1 0.900000 23.851000 22.260000 22.444460 # Ca
251 39 2 -0.314000 11.924000 45.073002 23.384460 # Cb
252 39 2 -0.314000 24.980000 22.458000 23.384460 # Cb
253 39 4 -0.234000 0.159000 22.240999 22.889460 # Cd
254 39 4 -0.234000 13.216000 44.855999 22.889460 # Cd
255 39 6 0.186000 0.271000 21.941000 21.849461 # H
256 39 6 0.186000 13.328000 44.556000 21.849461 # H
257 39 9 -0.752000 10.990000 44.474998 21.254459 # Ob
258 39 9 -0.752000 24.047001 21.860001 21.254459 # Ob
259 39 3 0.456000 6.070000 35.174999 23.664459 # Cc
260 39 3 0.456000 19.127001 12.560000 23.664459 # Cc
261 39 1 0.900000 7.967000 32.139999 22.444460 # Ca
262 39 1 0.900000 21.024000 9.525000 22.444460 # Ca
263 39 2 -0.314000 7.231000 33.020000 23.384460 # Cb
264 39 2 -0.314000 20.288000 10.405000 23.384460 # Cb
265 39 4 -0.234000 6.773000 34.248001 22.889460 # Cd
266 39 4 -0.234000 19.830000 11.633000 22.889460 # Cd
267 39 6 0.186000 6.977000 34.494999 21.849461 # H
268 39 6 0.186000 20.033001 11.880000 21.849461 # H
269 39 9 -0.752000 8.216000 32.509998 21.254459 # Ob
270 39 9 -0.752000 21.273001 9.895000 21.254459 # Ob
271 39 10 -0.903000 10.541000 30.612000 20.716461 # Oc
272 39 10 -0.903000 23.598000 7.997000 20.716461 # Oc
273 39 1 0.900000 5.090000 35.705002 19.055460 # Ca
274 39 1 0.900000 18.146000 13.090000 19.055460 # Ca
275 39 2 -0.314000 5.826000 34.825001 18.115459 # Cb
276 39 2 -0.314000 18.882000 12.210000 18.115459 # Cb
277 39 4 -0.234000 6.284000 33.597000 18.610460 # Cd
278 39 4 -0.234000 19.341000 10.982000 18.610460 # Cd
279 39 6 0.186000 6.080000 33.349998 19.650459 # H
280 39 6 0.186000 19.136999 10.735000 19.650459 # H
281 39 9 -0.752000 4.841000 35.334999 20.245461 # Ob
282 39 9 -0.752000 17.898001 12.720000 20.245461 # Ob
283 39 10 -0.903000 2.515000 37.233002 20.783461 # Oc
284 39 10 -0.903000 15.572000 14.618000 20.783461 # Oc
285 39 9 -0.752000 2.067000 38.446999 17.939461 # Ob
286 39 9 -0.752000 15.124000 15.832000 17.939461 # Ob
287 39 1 0.900000 2.263000 38.046001 23.666460 # Ca
288 39 1 0.900000 15.320000 15.431000 23.666460 # Ca
289 39 2 -0.314000 1.133000 37.848999 22.726460 # Cb
290 39 2 -0.314000 14.190000 15.234000 22.726460 # Cb
291 39 3 0.456000 1.314000 37.462002 21.358459 # Cc
292 39 3 0.456000 14.371000 14.847000 21.358459 # Cc
293 39 4 -0.234000 12.898000 15.451000 23.221460 # Cd
294 39 4 -0.234000 25.954000 38.066002 23.221460 # Cd
295 39 6 0.186000 12.785000 15.751000 17.344460 # H
296 39 6 0.186000 25.841999 38.366001 17.344460 # H
297 39 1 0.900000 10.794000 14.722000 20.138460 # Ca
298 39 1 0.900000 23.851000 37.337002 20.138460 # Ca
299 39 2 -0.314000 11.924000 14.919000 21.078461 # Cb
300 39 2 -0.314000 24.980000 37.534000 21.078461 # Cb
301 39 3 0.456000 11.743000 15.306000 22.446461 # Cc
302 39 3 0.456000 24.799000 37.921001 22.446461 # Cc
303 39 4 -0.234000 0.159000 37.317001 20.583460 # Cd
304 39 4 -0.234000 13.216000 14.702000 20.583460 # Cd
305 39 6 0.186000 0.272000 37.016998 19.543461 # H
306 39 6 0.186000 13.328000 14.402000 19.543461 # H
307 39 9 -0.752000 10.990000 14.322000 18.948460 # Ob
308 39 9 -0.752000 24.047001 36.937000 18.948460 # Ob
309 39 10 -0.903000 10.541000 15.535000 23.021460 # Oc
310 39 10 -0.903000 23.598000 38.150002 23.021460 # Oc
311 39 9 -0.752000 4.841000 5.182000 17.939461 # Ob
312 39 9 -0.752000 17.898001 27.797001 17.939461 # Ob
313 39 10 -0.903000 2.515000 7.080000 18.477459 # Oc
314 39 10 -0.903000 15.572000 29.695000 18.477459 # Oc
315 39 1 0.900000 5.090000 5.552000 23.666460 # Ca
316 39 1 0.900000 18.146000 28.167000 23.666460 # Ca
317 39 2 -0.314000 5.826000 4.672000 22.726460 # Cb
318 39 2 -0.314000 18.882000 27.287001 22.726460 # Cb
319 39 3 0.456000 6.070000 5.022000 21.358459 # Cc
320 39 3 0.456000 19.127001 27.636999 21.358459 # Cc
321 39 4 -0.234000 6.284000 3.444000 23.221460 # Cd
322 39 4 -0.234000 19.340000 26.059000 23.221460 # Cd
323 39 6 0.186000 6.080000 3.197000 17.344460 # H
324 39 6 0.186000 19.136999 25.812000 17.344460 # H
325 39 1 0.900000 7.967000 1.987000 20.138460 # Ca
326 39 1 0.900000 21.024000 24.601999 20.138460 # Ca
327 39 2 -0.314000 7.231000 2.866000 21.078461 # Cb
328 39 2 -0.314000 20.288000 25.481001 21.078461 # Cb
329 39 3 0.456000 6.987000 2.516000 22.446461 # Cc
330 39 3 0.456000 20.042999 25.131001 22.446461 # Cc
331 39 4 -0.234000 6.773000 4.094000 20.583460 # Cd
332 39 4 -0.234000 19.830000 26.709000 20.583460 # Cd
333 39 6 0.186000 6.977000 4.341000 19.543461 # H
334 39 6 0.186000 20.033001 26.955999 19.543461 # H
335 39 9 -0.752000 8.216000 2.357000 18.948460 # Ob
336 39 9 -0.752000 21.273001 24.972000 18.948460 # Ob
337 39 1 0.900000 2.263000 7.893000 21.360460 # Ca
338 39 1 0.900000 15.320000 30.507999 21.360460 # Ca
339 39 2 -0.314000 1.133000 7.696000 20.421459 # Cb
340 39 2 -0.314000 14.190000 30.311001 20.421459 # Cb
341 39 3 0.456000 1.314000 7.309000 19.053459 # Cc
342 39 3 0.456000 14.371000 29.924000 19.053459 # Cc
343 39 4 -0.234000 12.898000 30.528000 20.916460 # Cd
344 39 4 -0.234000 25.954000 7.913000 20.916460 # Cd
345 39 6 0.186000 12.785000 30.827999 21.955460 # H
346 39 6 0.186000 25.841999 8.213000 21.955460 # H
347 39 9 -0.752000 2.067000 8.293000 22.550461 # Ob
348 39 9 -0.752000 15.124000 30.908001 22.550461 # Ob
349 39 2 -0.314000 11.924000 29.996000 18.773460 # Cb
350 39 2 -0.314000 24.980000 7.381000 18.773460 # Cb
351 39 3 0.456000 11.743000 30.382999 20.140461 # Cc
352 39 3 0.456000 24.799000 7.768000 20.140461 # Cc
353 39 4 -0.234000 0.159000 7.164000 18.277460 # Cd
354 39 4 -0.234000 13.216000 29.778999 18.277460 # Cd
355 39 1 0.900000 10.794000 29.799000 17.833460 # Ca
356 39 1 0.900000 23.851000 7.184000 17.833460 # Ca
357 39 9 -0.752000 10.990000 29.398001 23.559460 # Ob
358 39 9 -0.752000 24.047001 6.783000 23.559460 # Ob
359 39 1 0.900000 5.090000 20.628000 21.360460 # Ca
360 39 1 0.900000 18.146000 43.243000 21.360460 # Ca
361 39 2 -0.314000 5.826000 19.749001 20.421459 # Cb
362 39 2 -0.314000 18.882000 42.363998 20.421459 # Cb
363 39 3 0.456000 6.070000 20.099001 19.053459 # Cc
364 39 3 0.456000 19.127001 42.714001 19.053459 # Cc
365 39 4 -0.234000 6.284000 18.521000 20.916460 # Cd
366 39 4 -0.234000 19.341000 41.136002 20.916460 # Cd
367 39 6 0.186000 6.080000 18.274000 21.955460 # H
368 39 6 0.186000 19.136999 40.889000 21.955460 # H
369 39 9 -0.752000 4.841000 20.257999 22.550461 # Ob
370 39 9 -0.752000 17.898001 42.873001 22.550461 # Ob
371 39 2 -0.314000 7.231000 17.943001 18.773460 # Cb
372 39 2 -0.314000 20.288000 40.557999 18.773460 # Cb
373 39 3 0.456000 6.987000 17.593000 20.140461 # Cc
374 39 3 0.456000 20.042999 40.208000 20.140461 # Cc
375 39 4 -0.234000 6.773000 19.171000 18.277460 # Cd
376 39 4 -0.234000 19.830000 41.785999 18.277460 # Cd
377 39 1 0.900000 7.967000 17.063000 17.833460 # Ca
378 39 1 0.900000 21.024000 39.678001 17.833460 # Ca
379 39 9 -0.752000 8.216000 17.433001 23.559460 # Ob
380 39 9 -0.752000 21.273001 40.048000 23.559460 # Ob
381 39 9 -0.752000 6.149000 24.216999 17.939461 # Ob
382 39 9 -0.752000 19.205999 1.602000 17.939461 # Ob
383 39 8 -0.899000 3.455000 22.708000 18.627460 # Oa
384 39 8 -0.899000 16.511000 0.093000 18.627460 # Oa
385 39 10 -0.903000 4.874000 24.434999 20.783461 # Oc
386 39 10 -0.903000 17.930000 1.820000 20.783461 # Oc
387 39 1 0.900000 5.704000 24.247000 23.666460 # Ca
388 39 1 0.900000 18.761000 1.632000 23.666460 # Ca
389 39 2 -0.314000 6.098000 25.323999 22.726460 # Cb
390 39 2 -0.314000 19.155001 2.709000 22.726460 # Cb
391 39 3 0.456000 5.672000 25.361000 21.358459 # Cc
392 39 3 0.456000 18.729000 2.746000 21.358459 # Cc
393 39 4 -0.234000 6.932000 26.334999 23.221460 # Cd
394 39 4 -0.234000 19.989000 3.720000 23.221460 # Cd
395 39 6 0.186000 7.248000 26.282000 17.344460 # H
396 39 6 0.186000 20.305000 3.667000 17.344460 # H
397 39 8 -0.899000 4.881000 23.346001 23.238461 # Oa
398 39 8 -0.899000 17.938000 0.731000 23.238461 # Oa
399 39 1 0.900000 7.353000 28.521000 20.138460 # Ca
400 39 1 0.900000 20.409000 5.906000 20.138460 # Ca
401 39 2 -0.314000 6.959000 27.444000 21.078461 # Cb
402 39 2 -0.314000 20.016001 4.829000 21.078461 # Cb
403 39 3 0.456000 7.384000 27.407000 22.446461 # Cc
404 39 3 0.456000 20.441000 4.792000 22.446461 # Cc
405 39 4 -0.234000 6.125000 26.434000 20.583460 # Cd
406 39 4 -0.234000 19.181000 3.819000 20.583460 # Cd
407 39 6 0.186000 5.809000 26.486000 19.543461 # H
408 39 6 0.186000 18.865999 3.871000 19.543461 # H
409 39 9 -0.752000 6.908000 28.552000 18.948460 # Ob
410 39 9 -0.752000 19.965000 5.937000 18.948460 # Ob
411 39 8 -0.899000 8.175000 29.422001 20.566460 # Oa
412 39 8 -0.899000 21.232000 6.807000 20.566460 # Oa
413 39 10 -0.903000 8.183000 28.333000 23.021460 # Oc
414 39 10 -0.903000 21.240000 5.718000 23.021460 # Oc
415 39 1 0.900000 2.263000 22.969999 19.055460 # Ca
416 39 1 0.900000 15.320000 0.355000 19.055460 # Ca
417 39 2 -0.314000 1.133000 22.771999 18.115459 # Cb
418 39 2 -0.314000 14.190000 0.157000 18.115459 # Cb
419 39 4 -0.234000 12.898000 0.374000 18.610460 # Cd
420 39 4 -0.234000 25.954000 22.989000 18.610460 # Cd
421 39 6 0.186000 12.785000 0.674000 19.650459 # H
422 39 6 0.186000 25.841999 23.289000 19.650459 # H
423 39 9 -0.752000 2.067000 23.370001 20.245461 # Ob
424 39 9 -0.752000 15.124000 0.755000 20.245461 # Ob
425 39 10 -0.903000 7.389000 31.514999 18.410460 # Oc
426 39 10 -0.903000 20.445999 8.900000 18.410460 # Oc
427 39 6 0.186000 5.809000 41.563000 24.154461 # H
428 39 6 0.186000 18.865999 18.948000 24.154461 # H
429 39 10 -0.903000 10.541000 0.459000 18.410460 # Oc
430 39 10 -0.903000 23.598000 23.073999 18.410460 # Oc
431 39 3 0.456000 11.743000 0.230000 17.835461 # Cc
432 39 3 0.456000 24.799999 22.844999 17.835461 # Cc
433 39 3 0.456000 6.986000 32.669998 17.835461 # Cc
434 39 3 0.456000 20.042999 10.055000 17.835461 # Cc
435 39 6 0.186000 0.271000 6.864000 24.154461 # H
436 39 6 0.186000 13.328000 29.479000 24.154461 # H
437 39 6 0.186000 6.977000 19.417999 24.154461 # H
438 39 6 0.186000 20.033001 42.033001 24.154461 # H
439 39 7 1.560000 5.314000 7.966000 0.934500 # Mg
440 39 7 1.560000 18.371000 30.580999 0.934500 # Mg
441 39 7 1.560000 4.242000 6.491000 26.295460 # Mg
442 39 7 1.560000 17.299000 29.106001 26.295460 # Mg
443 39 7 1.560000 3.501000 8.158000 3.240500 # Mg
444 39 7 1.560000 16.558001 30.773001 3.240500 # Mg
445 39 7 1.560000 7.743000 14.649000 26.732460 # Mg
446 39 7 1.560000 20.799000 37.264000 26.732460 # Mg
447 39 7 1.560000 8.815000 16.124001 1.370500 # Mg
448 39 7 1.560000 21.872000 38.738998 1.370500 # Mg
449 39 7 1.560000 9.556000 14.457000 24.426460 # Mg
450 39 7 1.560000 22.613001 37.071999 24.426460 # Mg
451 39 7 1.560000 8.815000 31.200001 26.732460 # Mg
452 39 7 1.560000 21.872000 8.585000 26.732460 # Mg
453 39 7 1.560000 9.556000 29.534000 1.370500 # Mg
454 39 7 1.560000 22.613001 6.919000 1.370500 # Mg
455 39 7 1.560000 4.242000 21.568001 3.240500 # Mg
456 39 7 1.560000 17.299000 44.182999 3.240500 # Mg
457 39 7 1.560000 8.815000 1.047000 24.426460 # Mg
458 39 7 1.560000 21.872000 23.662001 24.426460 # Mg
459 39 7 1.560000 5.314000 38.118999 3.240500 # Mg
460 39 7 1.560000 18.371000 15.504000 3.240500 # Mg
461 39 7 1.560000 7.743000 44.801998 1.370500 # Mg
462 39 7 1.560000 20.799000 22.187000 1.370500 # Mg
463 39 7 1.560000 9.556000 44.611000 26.732460 # Mg
464 39 7 1.560000 22.613001 21.996000 26.732460 # Mg
465 39 7 1.560000 3.501000 38.311001 26.295460 # Mg
466 39 7 1.560000 16.558001 15.696000 26.295460 # Mg
467 39 7 1.560000 4.242000 36.645000 0.934500 # Mg
468 39 7 1.560000 17.299000 14.030000 0.934500 # Mg
469 39 7 1.560000 5.314000 23.042999 26.295460 # Mg
470 39 7 1.560000 18.371000 0.428000 26.295460 # Mg
471 39 7 1.560000 3.501000 23.233999 0.934500 # Mg
472 39 7 1.560000 16.558001 0.619000 0.934500 # Mg
473 39 7 1.560000 7.743000 29.726000 24.426460 # Mg
474 39 7 1.560000 20.799000 7.111000 24.426460 # Mg
475 39 1 0.900000 5.704000 9.170000 25.972460 # Ca
476 39 1 0.900000 18.761000 31.785000 25.972460 # Ca
477 39 2 -0.314000 6.098000 10.247000 25.032459 # Cb
478 39 2 -0.314000 19.155001 32.862000 25.032459 # Cb
479 39 4 -0.234000 6.932000 11.258000 25.527460 # Cd
480 39 4 -0.234000 19.989000 33.873001 25.527460 # Cd
481 39 6 0.186000 7.248000 11.206000 26.567459 # H
482 39 6 0.186000 20.305000 33.820999 26.567459 # H
483 39 9 -0.752000 6.149000 9.140000 27.162460 # Ob
484 39 9 -0.752000 19.205999 31.754999 27.162460 # Ob
485 39 8 -0.899000 4.881000 8.269000 25.544460 # Oa
486 39 8 -0.899000 17.938000 30.884001 25.544460 # Oa
487 39 10 -0.903000 8.183000 13.257000 25.327459 # Oc
488 39 10 -0.903000 21.240000 35.872002 25.327459 # Oc
489 39 8 -0.899000 4.721000 6.715000 2.488500 # Oa
490 39 8 -0.899000 17.777000 29.330000 2.488500 # Oa
491 39 8 -0.899000 3.455000 7.631000 0.183500 # Oa
492 39 8 -0.899000 16.511000 30.246000 0.183500 # Oa
493 39 10 -0.903000 4.874000 9.358000 2.338500 # Oc
494 39 10 -0.903000 17.930000 31.973000 2.338500 # Oc
495 39 10 -0.903000 5.668000 6.177000 0.033500 # Oc
496 39 10 -0.903000 18.725000 28.792000 0.033500 # Oc
497 39 3 0.456000 5.672000 10.284000 2.914500 # Cc
498 39 3 0.456000 18.729000 32.898998 2.914500 # Cc
499 39 1 0.900000 7.353000 13.445000 1.694500 # Ca
500 39 1 0.900000 20.409000 36.060001 1.694500 # Ca
501 39 2 -0.314000 6.959000 12.368000 2.634500 # Cb
502 39 2 -0.314000 20.016001 34.983002 2.634500 # Cb
503 39 3 0.456000 7.384000 12.331000 24.752460 # Cc
504 39 3 0.456000 20.441000 34.945999 24.752460 # Cc
505 39 4 -0.234000 6.125000 11.357000 2.139500 # Cd
506 39 4 -0.234000 19.181000 33.972000 2.139500 # Cd
507 39 6 0.186000 5.809000 11.409000 1.099500 # H
508 39 6 0.186000 18.865999 34.023998 1.099500 # H
509 39 9 -0.752000 6.908000 13.475000 0.504500 # Ob
510 39 9 -0.752000 19.965000 36.090000 0.504500 # Ob
511 39 8 -0.899000 8.175000 14.346000 2.121500 # Oa
512 39 8 -0.899000 21.232000 36.960999 2.121500 # Oa
513 39 8 -0.899000 8.336000 15.900000 25.177460 # Oa
514 39 8 -0.899000 21.393000 38.514999 25.177460 # Oa
515 39 8 -0.899000 9.602000 14.984000 27.483459 # Oa
516 39 8 -0.899000 22.659000 37.598999 27.483459 # Oa
517 39 10 -0.903000 7.389000 16.438000 27.633459 # Oc
518 39 10 -0.903000 20.445999 39.053001 27.633459 # Oc
519 39 8 -0.899000 9.602000 30.059999 25.177460 # Oa
520 39 8 -0.899000 22.659000 7.445000 25.177460 # Oa
521 39 8 -0.899000 8.336000 30.976999 2.121500 # Oa
522 39 8 -0.899000 21.393000 8.362000 2.121500 # Oa
523 39 8 -0.899000 4.721000 21.791000 0.183500 # Oa
524 39 8 -0.899000 17.777000 44.405998 0.183500 # Oa
525 39 10 -0.903000 5.668000 21.254000 25.394459 # Oc
526 39 10 -0.903000 18.725000 43.868999 25.394459 # Oc
527 39 8 -0.899000 8.336000 0.824000 27.483459 # Oa
528 39 8 -0.899000 21.393000 23.438999 27.483459 # Oa
529 39 10 -0.903000 7.389000 1.361000 2.271500 # Oc
530 39 10 -0.903000 20.445999 23.976000 2.271500 # Oc
531 39 10 -0.903000 4.874000 39.512001 25.394459 # Oc
532 39 10 -0.903000 17.930000 16.896999 25.394459 # Oc
533 39 1 0.900000 5.704000 39.324001 0.610500 # Ca
534 39 1 0.900000 18.761000 16.709000 0.610500 # Ca
535 39 2 -0.314000 6.098000 40.401001 27.338459 # Cb
536 39 2 -0.314000 19.155001 17.785999 27.338459 # Cb
537 39 3 0.456000 5.672000 40.438000 25.970459 # Cc
538 39 3 0.456000 18.729000 17.823000 25.970459 # Cc
539 39 4 -0.234000 6.932000 41.410999 0.166500 # Cd
540 39 4 -0.234000 19.989000 18.796000 0.166500 # Cd
541 39 6 0.186000 7.248000 41.359001 1.205500 # H
542 39 6 0.186000 20.305000 18.743999 1.205500 # H
543 39 9 -0.752000 6.149000 39.292999 1.800500 # Ob
544 39 9 -0.752000 19.205999 16.677999 1.800500 # Ob
545 39 8 -0.899000 4.882000 38.423000 0.183500 # Oa
546 39 8 -0.899000 17.938000 15.808000 0.183500 # Oa
547 39 2 -0.314000 6.959000 42.521000 25.690460 # Cb
548 39 2 -0.314000 20.016001 19.906000 25.690460 # Cb
549 39 3 0.456000 7.384000 42.484001 27.057461 # Cc
550 39 3 0.456000 20.441000 19.868999 27.057461 # Cc
551 39 4 -0.234000 6.125000 41.509998 25.194460 # Cd
552 39 4 -0.234000 19.181000 18.895000 25.194460 # Cd
553 39 8 -0.899000 8.175000 44.499001 25.177460 # Oa
554 39 8 -0.899000 21.232000 21.884001 25.177460 # Oa
555 39 10 -0.903000 8.183000 43.410000 27.633459 # Oc