LAMMPS data file. CGCMM style. atom_style full generated by VMD/TopoTools v1.5 on Mon Oct 03 12:52:46 CEST 2016
 50 atoms
 0 bonds
 0 angles
 0 dihedrals
 0 impropers
 1 atom types
 0 bond types
 0 angle types
 0 dihedral types
 0 improper types
 6.528401 32.642401  xlo xhi
 11.307500 56.537500  ylo yhi
 -1.064000 26.603000  zlo zhi

# Pair Coeffs
#
# 1  CH4_

 Masses

 1 12.011000 # CH4_

 Atoms

1 1 1 0.000000 26.114401 45.230499 14.898000 # CH4_ 
2 1 1 0.000000 26.114401 45.230499 17.026001 # CH4_ 
3 1 1 0.000000 26.114401 45.230499 19.153999 # CH4_ 
4 1 1 0.000000 26.114401 45.230499 21.282000 # CH4_ 
5 1 1 0.000000 26.114401 45.230499 23.410999 # CH4_ 
6 1 1 0.000000 26.114401 45.230499 25.539000 # CH4_ 
7 1 1 0.000000 26.114401 45.230499 0.000000 # CH4_ 
8 1 1 0.000000 26.114401 45.230499 2.128000 # CH4_ 
9 2 1 0.000000 26.114401 45.230499 4.256000 # CH4_ 
10 2 1 0.000000 26.114401 45.230499 6.385000 # CH4_ 
11 2 1 0.000000 26.114401 45.230499 8.513000 # CH4_ 
12 2 1 0.000000 26.114401 45.230499 10.641000 # CH4_ 
13 2 1 0.000000 26.114401 45.230499 12.769000 # CH4_ 
14 2 1 0.000000 26.114401 22.614500 14.898000 # CH4_ 
15 2 1 0.000000 26.114401 22.614500 17.026001 # CH4_ 
16 2 1 0.000000 26.114401 22.614500 19.153999 # CH4_ 
17 3 1 0.000000 26.114401 22.614500 21.282000 # CH4_ 
18 3 1 0.000000 26.114401 22.614500 23.410999 # CH4_ 
19 3 1 0.000000 26.114401 22.614500 25.539000 # CH4_ 
20 3 1 0.000000 26.114401 22.614500 0.000000 # CH4_ 
21 3 1 0.000000 26.114401 22.614500 2.128000 # CH4_ 
22 3 1 0.000000 26.114401 22.614500 4.256000 # CH4_ 
23 3 1 0.000000 26.114401 22.614500 6.385000 # CH4_ 
24 3 1 0.000000 26.114401 22.614500 8.513000 # CH4_ 
25 4 1 0.000000 26.114401 22.614500 10.641000 # CH4_ 
26 4 1 0.000000 26.114401 22.614500 12.769000 # CH4_ 
27 4 1 0.000000 13.056400 45.230499 14.898000 # CH4_ 
28 4 1 0.000000 13.056400 45.230499 17.026001 # CH4_ 
29 4 1 0.000000 13.056400 45.230499 19.153999 # CH4_ 
30 4 1 0.000000 13.056400 45.230499 21.282000 # CH4_ 
31 4 1 0.000000 13.056400 45.230499 23.410999 # CH4_ 
32 4 1 0.000000 13.056400 45.230499 25.539000 # CH4_ 
33 5 1 0.000000 13.056400 45.230499 0.000000 # CH4_ 
34 5 1 0.000000 13.056400 45.230499 2.128000 # CH4_ 
35 5 1 0.000000 13.056400 45.230499 4.256000 # CH4_ 
36 5 1 0.000000 13.056400 45.230499 6.385000 # CH4_ 
37 5 1 0.000000 13.056400 45.230499 8.513000 # CH4_ 
38 5 1 0.000000 13.056400 45.230499 10.641000 # CH4_ 
39 5 1 0.000000 13.056400 45.230499 12.769000 # CH4_ 
40 5 1 0.000000 13.056400 22.614500 14.898000 # CH4_ 
41 6 1 0.000000 13.056400 22.614500 17.026001 # CH4_ 
42 6 1 0.000000 13.056400 22.614500 19.153999 # CH4_ 
43 6 1 0.000000 13.056400 22.614500 21.282000 # CH4_ 
44 6 1 0.000000 13.056400 22.614500 23.410999 # CH4_ 
45 6 1 0.000000 13.056400 22.614500 25.539000 # CH4_ 
46 6 1 0.000000 13.056400 22.614500 0.000000 # CH4_ 
47 6 1 0.000000 13.056400 22.614500 2.128000 # CH4_ 
48 6 1 0.000000 13.056400 22.614500 4.256000 # CH4_ 
49 7 1 0.000000 13.056400 22.614500 6.385000 # CH4_ 
50 7 1 0.000000 13.056400 22.614500 8.513000 # CH4_ 
