LAMMPS data file. CGCMM style. atom_style full generated by VMD/TopoTools v1.5 on Sun Apr 09 11:01:11 PDT 2017
 4143 atoms
 1034 bonds
 0 angles
 0 dihedrals
 0 impropers
 11 atom types
 1 bond types
 0 angle types
 0 dihedral types
 0 improper types
 0.451838 52.642840  xlo xhi
 0.325101 45.523500  ylo yhi
 0.100880 27.628121  zlo zhi

# Pair Coeffs
#
# 1  Ca
# 2  Cb
# 3  Cc
# 4  Cd
# 5  Cg
# 6  H
# 7  Oa
# 8  Ob
# 9  Oc
# 10  Og
# 11  Zn

 Masses

 1 12.011000 # Ca
 2 12.011000 # Cb
 3 12.011000 # Cc
 4 12.011000 # Cd
 5 12.011000 # Cg
 6 1.008000 # H
 7 15.999000 # Oa
 8 15.999000 # Ob
 9 15.999000 # Oc
 10 15.999000 # Og
 11 65.379997 # Zn

 Atoms

1 1 10 -0.325600 52.190678 45.197601 16.188999 # Og 
2 1 5 0.651200 52.190678 45.197601 15.029000 # Cg 
3 1 10 -0.325600 52.190678 45.197601 13.869000 # Og 
4 2 10 -0.325600 52.190678 45.197601 16.401001 # Og 
5 2 5 0.651200 52.190678 45.197601 15.241000 # Cg 
6 2 10 -0.325600 52.190678 45.197601 14.081000 # Og 
7 3 10 -0.325600 52.190678 45.197601 16.613001 # Og 
8 3 5 0.651200 52.190678 45.197601 15.453000 # Cg 
9 3 10 -0.325600 52.190678 45.197601 14.293000 # Og 
10 4 10 -0.325600 52.190678 45.197601 16.824001 # Og 
11 4 5 0.651200 52.190678 45.197601 15.664001 # Cg 
12 4 10 -0.325600 52.190678 45.197601 14.504001 # Og 
13 5 10 -0.325600 52.190678 45.197601 17.035999 # Og 
14 5 5 0.651200 52.190678 45.197601 15.876000 # Cg 
15 5 10 -0.325600 52.190678 45.197601 14.716001 # Og 
16 6 10 -0.325600 52.190678 45.197601 17.248001 # Og 
17 6 5 0.651200 52.190678 45.197601 16.088001 # Cg 
18 6 10 -0.325600 52.190678 45.197601 14.928000 # Og 
19 7 10 -0.325600 52.190678 45.197601 17.459999 # Og 
20 7 5 0.651200 52.190678 45.197601 16.299999 # Cg 
21 7 10 -0.325600 52.190678 45.197601 15.140000 # Og 
22 8 10 -0.325600 52.190678 45.197601 17.671001 # Og 
23 8 5 0.651200 52.190678 45.197601 16.511002 # Cg 
24 8 10 -0.325600 52.190678 45.197601 15.351001 # Og 
25 9 10 -0.325600 52.190678 45.197601 17.882999 # Og 
26 9 5 0.651200 52.190678 45.197601 16.723000 # Cg 
27 9 10 -0.325600 52.190678 45.197601 15.563001 # Og 
28 10 10 -0.325600 52.190678 45.197601 18.095001 # Og 
29 10 5 0.651200 52.190678 45.197601 16.935001 # Cg 
30 10 10 -0.325600 52.190678 45.197601 15.775001 # Og 
31 11 10 -0.325600 52.190678 45.197601 18.306999 # Og 
32 11 5 0.651200 52.190678 45.197601 17.146999 # Cg 
33 11 10 -0.325600 52.190678 45.197601 15.987000 # Og 
34 12 10 -0.325600 52.190678 45.197601 18.518002 # Og 
35 12 5 0.651200 52.190678 45.197601 17.358002 # Cg 
36 12 10 -0.325600 52.190678 45.197601 16.198000 # Og 
37 13 10 -0.325600 52.190678 45.197601 18.730000 # Og 
38 13 5 0.651200 52.190678 45.197601 17.570000 # Cg 
39 13 10 -0.325600 52.190678 45.197601 16.410000 # Og 
40 14 10 -0.325600 52.190678 45.197601 18.942001 # Og 
41 14 5 0.651200 52.190678 45.197601 17.782001 # Cg 
42 14 10 -0.325600 52.190678 45.197601 16.622002 # Og 
43 15 10 -0.325600 52.190678 45.197601 19.153999 # Og 
44 15 5 0.651200 52.190678 45.197601 17.993999 # Cg 
45 15 10 -0.325600 52.190678 45.197601 16.834000 # Og 
46 16 10 -0.325600 52.190678 45.197601 19.365002 # Og 
47 16 5 0.651200 52.190678 45.197601 18.205002 # Cg 
48 16 10 -0.325600 52.190678 45.197601 17.045000 # Og 
49 17 10 -0.325600 52.190678 45.197601 19.577000 # Og 
50 17 5 0.651200 52.190678 45.197601 18.417000 # Cg 
51 17 10 -0.325600 52.190678 45.197601 17.257000 # Og 
52 18 10 -0.325600 52.190678 45.197601 19.789001 # Og 
53 18 5 0.651200 52.190678 45.197601 18.629002 # Cg 
54 18 10 -0.325600 52.190678 45.197601 17.469002 # Og 
55 19 10 -0.325600 52.190678 45.197601 20.000999 # Og 
56 19 5 0.651200 52.190678 45.197601 18.841000 # Cg 
57 19 10 -0.325600 52.190678 45.197601 17.681000 # Og 
58 20 10 -0.325600 52.190678 45.197601 20.212000 # Og 
59 20 5 0.651200 52.190678 45.197601 19.052000 # Cg 
60 20 10 -0.325600 52.190678 45.197601 17.892000 # Og 
61 21 10 -0.325600 52.190678 45.197601 20.424000 # Og 
62 21 5 0.651200 52.190678 45.197601 19.264000 # Cg 
63 21 10 -0.325600 52.190678 45.197601 18.104000 # Og 
64 22 10 -0.325600 52.190678 45.197601 20.636002 # Og 
65 22 5 0.651200 52.190678 45.197601 19.476002 # Cg 
66 22 10 -0.325600 52.190678 45.197601 18.316000 # Og 
67 23 10 -0.325600 52.190678 45.197601 20.848000 # Og 
68 23 5 0.651200 52.190678 45.197601 19.688000 # Cg 
69 23 10 -0.325600 52.190678 45.197601 18.528000 # Og 
70 24 10 -0.325600 52.190678 45.197601 21.059000 # Og 
71 24 5 0.651200 52.190678 45.197601 19.899000 # Cg 
72 24 10 -0.325600 52.190678 45.197601 18.739000 # Og 
73 25 10 -0.325600 52.190678 45.197601 21.271000 # Og 
74 25 5 0.651200 52.190678 45.197601 20.111000 # Cg 
75 25 10 -0.325600 52.190678 45.197601 18.951000 # Og 
76 26 10 -0.325600 52.190678 45.197601 21.483000 # Og 
77 26 5 0.651200 52.190678 45.197601 20.323000 # Cg 
78 26 10 -0.325600 52.190678 45.197601 19.163000 # Og 
79 27 10 -0.325600 52.190678 45.197601 21.695000 # Og 
80 27 5 0.651200 52.190678 45.197601 20.535000 # Cg 
81 27 10 -0.325600 52.190678 45.197601 19.375000 # Og 
82 28 10 -0.325600 52.190678 45.197601 21.906000 # Og 
83 28 5 0.651200 52.190678 45.197601 20.746000 # Cg 
84 28 10 -0.325600 52.190678 45.197601 19.586000 # Og 
85 29 10 -0.325600 52.190678 45.197601 22.118000 # Og 
86 29 5 0.651200 52.190678 45.197601 20.958000 # Cg 
87 29 10 -0.325600 52.190678 45.197601 19.798000 # Og 
88 30 10 -0.325600 52.190678 45.197601 22.330000 # Og 
89 30 5 0.651200 52.190678 45.197601 21.170000 # Cg 
90 30 10 -0.325600 52.190678 45.197601 20.010000 # Og 
91 31 10 -0.325600 52.190678 45.197601 22.542000 # Og 
92 31 5 0.651200 52.190678 45.197601 21.382000 # Cg 
93 31 10 -0.325600 52.190678 45.197601 20.222000 # Og 
94 32 10 -0.325600 52.190678 45.197601 22.753000 # Og 
95 32 5 0.651200 52.190678 45.197601 21.593000 # Cg 
96 32 10 -0.325600 52.190678 45.197601 20.433001 # Og 
97 33 10 -0.325600 52.190678 45.197601 22.965000 # Og 
98 33 5 0.651200 52.190678 45.197601 21.805000 # Cg 
99 33 10 -0.325600 52.190678 45.197601 20.645000 # Og 
100 34 10 -0.325600 52.190678 45.197601 23.177000 # Og 
101 34 5 0.651200 52.190678 45.197601 22.017000 # Cg 
102 34 10 -0.325600 52.190678 45.197601 20.857000 # Og 
103 35 10 -0.325600 52.190678 45.197601 23.389000 # Og 
104 35 5 0.651200 52.190678 45.197601 22.229000 # Cg 
105 35 10 -0.325600 52.190678 45.197601 21.069000 # Og 
106 36 10 -0.325600 52.190678 45.197601 23.600000 # Og 
107 36 5 0.651200 52.190678 45.197601 22.440001 # Cg 
108 36 10 -0.325600 52.190678 45.197601 21.280001 # Og 
109 37 10 -0.325600 52.190678 45.197601 23.812000 # Og 
110 37 5 0.651200 52.190678 45.197601 22.652000 # Cg 
111 37 10 -0.325600 52.190678 45.197601 21.492001 # Og 
112 38 10 -0.325600 52.190678 45.197601 24.024000 # Og 
113 38 5 0.651200 52.190678 45.197601 22.864000 # Cg 
114 38 10 -0.325600 52.190678 45.197601 21.704000 # Og 
115 39 10 -0.325600 52.190678 45.197601 24.236000 # Og 
116 39 5 0.651200 52.190678 45.197601 23.076000 # Cg 
117 39 10 -0.325600 52.190678 45.197601 21.916000 # Og 
118 40 10 -0.325600 52.190678 45.197601 24.447001 # Og 
119 40 5 0.651200 52.190678 45.197601 23.287001 # Cg 
120 40 10 -0.325600 52.190678 45.197601 22.127001 # Og 
121 41 10 -0.325600 52.190678 45.197601 24.659000 # Og 
122 41 5 0.651200 52.190678 45.197601 23.499001 # Cg 
123 41 10 -0.325600 52.190678 45.197601 22.339001 # Og 
124 42 10 -0.325600 52.190678 45.197601 24.871000 # Og 
125 42 5 0.651200 52.190678 45.197601 23.711000 # Cg 
126 42 10 -0.325600 52.190678 45.197601 22.551001 # Og 
127 43 10 -0.325600 52.190678 45.197601 25.083000 # Og 
128 43 5 0.651200 52.190678 45.197601 23.923000 # Cg 
129 43 10 -0.325600 52.190678 45.197601 22.763000 # Og 
130 44 10 -0.325600 52.190678 45.197601 25.294001 # Og 
131 44 5 0.651200 52.190678 45.197601 24.134001 # Cg 
132 44 10 -0.325600 52.190678 45.197601 22.974001 # Og 
133 45 10 -0.325600 52.190678 45.197601 25.506001 # Og 
134 45 5 0.651200 52.190678 45.197601 24.346001 # Cg 
135 45 10 -0.325600 52.190678 45.197601 23.186001 # Og 
136 46 10 -0.325600 52.190678 45.197601 25.718000 # Og 
137 46 5 0.651200 52.190678 45.197601 24.558001 # Cg 
138 46 10 -0.325600 52.190678 45.197601 23.398001 # Og 
139 47 10 -0.325600 52.190678 45.197601 25.930000 # Og 
140 47 5 0.651200 52.190678 45.197601 24.770000 # Cg 
141 47 10 -0.325600 52.190678 45.197601 23.610001 # Og 
142 48 10 -0.325600 52.190678 45.197601 26.141001 # Og 
143 48 5 0.651200 52.190678 45.197601 24.981001 # Cg 
144 48 10 -0.325600 52.190678 45.197601 23.821001 # Og 
145 49 10 -0.325600 52.190678 45.197601 26.353001 # Og 
146 49 5 0.651200 52.190678 45.197601 25.193001 # Cg 
147 49 10 -0.325600 52.190678 45.197601 24.033001 # Og 
148 50 10 -0.325600 52.190678 45.197601 26.565001 # Og 
149 50 5 0.651200 52.190678 45.197601 25.405001 # Cg 
150 50 10 -0.325600 52.190678 45.197601 24.245001 # Og 
151 51 10 -0.325600 52.190678 45.197601 26.777000 # Og 
152 51 5 0.651200 52.190678 45.197601 25.617001 # Cg 
153 51 10 -0.325600 52.190678 45.197601 24.457001 # Og 
154 52 10 -0.325600 52.190678 45.197601 26.988001 # Og 
155 52 5 0.651200 52.190678 45.197601 25.828001 # Cg 
156 52 10 -0.325600 52.190678 45.197601 24.668001 # Og 
157 53 10 -0.325600 52.190678 45.197601 27.200001 # Og 
158 53 5 0.651200 52.190678 45.197601 26.040001 # Cg 
159 53 10 -0.325600 52.190678 45.197601 24.880001 # Og 
160 54 10 -0.325600 52.190678 45.197601 27.412001 # Og 
161 54 5 0.651200 52.190678 45.197601 26.252001 # Cg 
162 54 10 -0.325600 52.190678 45.197601 25.092001 # Og 
163 55 10 -0.325600 52.190678 45.197601 0.097000 # Og 
164 55 5 0.651200 52.190678 45.197601 26.464001 # Cg 
165 55 10 -0.325600 52.190678 45.197601 25.304001 # Og 
166 56 10 -0.325600 52.190678 45.197601 0.308000 # Og 
167 56 5 0.651200 52.190678 45.197601 26.675001 # Cg 
168 56 10 -0.325600 52.190678 45.197601 25.514999 # Og 
169 57 10 -0.325600 52.190678 45.197601 0.520000 # Og 
170 57 5 0.651200 52.190678 45.197601 26.887001 # Cg 
171 57 10 -0.325600 52.190678 45.197601 25.727001 # Og 
172 58 10 -0.325600 52.190678 45.197601 0.732000 # Og 
173 58 5 0.651200 52.190678 45.197601 27.099001 # Cg 
174 58 10 -0.325600 52.190678 45.197601 25.939001 # Og 
175 59 10 -0.325600 52.190678 45.197601 0.944000 # Og 
176 59 5 0.651200 52.190678 45.197601 27.311001 # Cg 
177 59 10 -0.325600 52.190678 45.197601 26.151001 # Og 
178 60 10 -0.325600 52.190678 45.197601 1.155000 # Og 
179 60 5 0.651200 52.190678 45.197601 27.522001 # Cg 
180 60 10 -0.325600 52.190678 45.197601 26.362000 # Og 
181 61 10 -0.325600 52.190678 45.197601 1.367000 # Og 
182 61 5 0.651200 52.190678 45.197601 0.207000 # Cg 
183 61 10 -0.325600 52.190678 45.197601 26.574001 # Og 
184 62 10 -0.325600 52.190678 45.197601 1.579000 # Og 
185 62 5 0.651200 52.190678 45.197601 0.419000 # Cg 
186 62 10 -0.325600 52.190678 45.197601 26.786001 # Og 
187 63 10 -0.325600 52.190678 45.197601 1.791000 # Og 
188 63 5 0.651200 52.190678 45.197601 0.631000 # Cg 
189 63 10 -0.325600 52.190678 45.197601 26.998001 # Og 
190 64 10 -0.325600 52.190678 45.197601 2.002000 # Og 
191 64 5 0.651200 52.190678 45.197601 0.842000 # Cg 
192 64 10 -0.325600 52.190678 45.197601 27.209000 # Og 
193 65 10 -0.325600 52.190678 45.197601 2.214000 # Og 
194 65 5 0.651200 52.190678 45.197601 1.054000 # Cg 
195 65 10 -0.325600 52.190678 45.197601 27.421000 # Og 
196 66 10 -0.325600 52.190678 45.197601 2.426000 # Og 
197 66 5 0.651200 52.190678 45.197601 1.266000 # Cg 
198 66 10 -0.325600 52.190678 45.197601 0.106000 # Og 
199 67 10 -0.325600 52.190678 45.197601 2.638000 # Og 
200 67 5 0.651200 52.190678 45.197601 1.478000 # Cg 
201 67 10 -0.325600 52.190678 45.197601 0.318000 # Og 
202 68 10 -0.325600 52.190678 45.197601 2.849000 # Og 
203 68 5 0.651200 52.190678 45.197601 1.689000 # Cg 
204 68 10 -0.325600 52.190678 45.197601 0.529000 # Og 
205 69 10 -0.325600 52.190678 45.197601 3.061000 # Og 
206 69 5 0.651200 52.190678 45.197601 1.901000 # Cg 
207 69 10 -0.325600 52.190678 45.197601 0.741000 # Og 
208 70 10 -0.325600 52.190678 45.197601 3.273000 # Og 
209 70 5 0.651200 52.190678 45.197601 2.113000 # Cg 
210 70 10 -0.325600 52.190678 45.197601 0.953000 # Og 
211 71 10 -0.325600 52.190678 45.197601 3.485000 # Og 
212 71 5 0.651200 52.190678 45.197601 2.325000 # Cg 
213 71 10 -0.325600 52.190678 45.197601 1.165000 # Og 
214 72 10 -0.325600 52.190678 45.197601 3.696000 # Og 
215 72 5 0.651200 52.190678 45.197601 2.536000 # Cg 
216 72 10 -0.325600 52.190678 45.197601 1.376000 # Og 
217 73 10 -0.325600 52.190678 45.197601 3.908000 # Og 
218 73 5 0.651200 52.190678 45.197601 2.748000 # Cg 
219 73 10 -0.325600 52.190678 45.197601 1.588000 # Og 
220 74 10 -0.325600 52.190678 45.197601 4.120000 # Og 
221 74 5 0.651200 52.190678 45.197601 2.960000 # Cg 
222 74 10 -0.325600 52.190678 45.197601 1.800000 # Og 
223 75 10 -0.325600 52.190678 45.197601 4.332000 # Og 
224 75 5 0.651200 52.190678 45.197601 3.172000 # Cg 
225 75 10 -0.325600 52.190678 45.197601 2.012000 # Og 
226 76 10 -0.325600 52.190678 45.197601 4.543000 # Og 
227 76 5 0.651200 52.190678 45.197601 3.383000 # Cg 
228 76 10 -0.325600 52.190678 45.197601 2.223000 # Og 
229 77 10 -0.325600 52.190678 45.197601 4.755000 # Og 
230 77 5 0.651200 52.190678 45.197601 3.595000 # Cg 
231 77 10 -0.325600 52.190678 45.197601 2.435000 # Og 
232 78 10 -0.325600 52.190678 45.197601 4.967000 # Og 
233 78 5 0.651200 52.190678 45.197601 3.807000 # Cg 
234 78 10 -0.325600 52.190678 45.197601 2.647000 # Og 
235 79 10 -0.325600 52.190678 45.197601 5.179000 # Og 
236 79 5 0.651200 52.190678 45.197601 4.019000 # Cg 
237 79 10 -0.325600 52.190678 45.197601 2.859000 # Og 
238 80 10 -0.325600 52.190678 45.197601 5.390000 # Og 
239 80 5 0.651200 52.190678 45.197601 4.230000 # Cg 
240 80 10 -0.325600 52.190678 45.197601 3.070000 # Og 
241 81 10 -0.325600 52.190678 45.197601 5.602000 # Og 
242 81 5 0.651200 52.190678 45.197601 4.442000 # Cg 
243 81 10 -0.325600 52.190678 45.197601 3.282000 # Og 
244 82 10 -0.325600 52.190678 45.197601 5.814000 # Og 
245 82 5 0.651200 52.190678 45.197601 4.654000 # Cg 
246 82 10 -0.325600 52.190678 45.197601 3.494000 # Og 
247 83 10 -0.325600 52.190678 45.197601 6.026000 # Og 
248 83 5 0.651200 52.190678 45.197601 4.866000 # Cg 
249 83 10 -0.325600 52.190678 45.197601 3.706000 # Og 
250 84 10 -0.325600 52.190678 45.197601 6.237000 # Og 
251 84 5 0.651200 52.190678 45.197601 5.077000 # Cg 
252 84 10 -0.325600 52.190678 45.197601 3.917000 # Og 
253 85 10 -0.325600 52.190678 45.197601 6.449000 # Og 
254 85 5 0.651200 52.190678 45.197601 5.289000 # Cg 
255 85 10 -0.325600 52.190678 45.197601 4.129000 # Og 
256 86 10 -0.325600 52.190678 45.197601 6.661000 # Og 
257 86 5 0.651200 52.190678 45.197601 5.501000 # Cg 
258 86 10 -0.325600 52.190678 45.197601 4.341000 # Og 
259 87 10 -0.325600 52.190678 45.197601 6.873000 # Og 
260 87 5 0.651200 52.190678 45.197601 5.713000 # Cg 
261 87 10 -0.325600 52.190678 45.197601 4.553000 # Og 
262 88 10 -0.325600 52.190678 45.197601 7.084000 # Og 
263 88 5 0.651200 52.190678 45.197601 5.924000 # Cg 
264 88 10 -0.325600 52.190678 45.197601 4.764000 # Og 
265 89 10 -0.325600 52.190678 45.197601 7.296000 # Og 
266 89 5 0.651200 52.190678 45.197601 6.136000 # Cg 
267 89 10 -0.325600 52.190678 45.197601 4.976000 # Og 
268 90 10 -0.325600 52.190678 45.197601 7.508000 # Og 
269 90 5 0.651200 52.190678 45.197601 6.348000 # Cg 
270 90 10 -0.325600 52.190678 45.197601 5.188000 # Og 
271 91 10 -0.325600 52.190678 45.197601 7.720000 # Og 
272 91 5 0.651200 52.190678 45.197601 6.560000 # Cg 
273 91 10 -0.325600 52.190678 45.197601 5.400000 # Og 
274 92 10 -0.325600 52.190678 45.197601 7.931000 # Og 
275 92 5 0.651200 52.190678 45.197601 6.771000 # Cg 
276 92 10 -0.325600 52.190678 45.197601 5.611000 # Og 
277 93 10 -0.325600 52.190678 45.197601 8.143000 # Og 
278 93 5 0.651200 52.190678 45.197601 6.983000 # Cg 
279 93 10 -0.325600 52.190678 45.197601 5.823000 # Og 
280 94 10 -0.325600 52.190678 45.197601 8.355000 # Og 
281 94 5 0.651200 52.190678 45.197601 7.195000 # Cg 
282 94 10 -0.325600 52.190678 45.197601 6.035000 # Og 
283 95 10 -0.325600 52.190678 45.197601 8.567000 # Og 
284 95 5 0.651200 52.190678 45.197601 7.407000 # Cg 
285 95 10 -0.325600 52.190678 45.197601 6.247000 # Og 
286 96 10 -0.325600 52.190678 45.197601 8.778000 # Og 
287 96 5 0.651200 52.190678 45.197601 7.618000 # Cg 
288 96 10 -0.325600 52.190678 45.197601 6.458000 # Og 
289 97 10 -0.325600 52.190678 45.197601 8.990000 # Og 
290 97 5 0.651200 52.190678 45.197601 7.830000 # Cg 
291 97 10 -0.325600 52.190678 45.197601 6.670000 # Og 
292 98 10 -0.325600 52.190678 45.197601 9.202000 # Og 
293 98 5 0.651200 52.190678 45.197601 8.042000 # Cg 
294 98 10 -0.325600 52.190678 45.197601 6.882000 # Og 
295 99 10 -0.325600 52.190678 45.197601 9.414000 # Og 
296 99 5 0.651200 52.190678 45.197601 8.254000 # Cg 
297 99 10 -0.325600 52.190678 45.197601 7.094000 # Og 
298 100 10 -0.325600 52.190678 45.197601 9.625000 # Og 
299 100 5 0.651200 52.190678 45.197601 8.465000 # Cg 
300 100 10 -0.325600 52.190678 45.197601 7.305000 # Og 
301 101 10 -0.325600 52.190678 45.197601 9.837000 # Og 
302 101 5 0.651200 52.190678 45.197601 8.677000 # Cg 
303 101 10 -0.325600 52.190678 45.197601 7.517000 # Og 
304 102 10 -0.325600 52.190678 45.197601 10.049000 # Og 
305 102 5 0.651200 52.190678 45.197601 8.889000 # Cg 
306 102 10 -0.325600 52.190678 45.197601 7.729000 # Og 
307 103 10 -0.325600 52.190678 45.197601 10.261000 # Og 
308 103 5 0.651200 52.190678 45.197601 9.101000 # Cg 
309 103 10 -0.325600 52.190678 45.197601 7.941000 # Og 
310 104 10 -0.325600 52.190678 45.197601 10.472000 # Og 
311 104 5 0.651200 52.190678 45.197601 9.312000 # Cg 
312 104 10 -0.325600 52.190678 45.197601 8.152000 # Og 
313 105 10 -0.325600 52.190678 45.197601 10.684000 # Og 
314 105 5 0.651200 52.190678 45.197601 9.524000 # Cg 
315 105 10 -0.325600 52.190678 45.197601 8.364000 # Og 
316 106 10 -0.325600 52.190678 45.197601 10.896000 # Og 
317 106 5 0.651200 52.190678 45.197601 9.736000 # Cg 
318 106 10 -0.325600 52.190678 45.197601 8.576000 # Og 
319 107 10 -0.325600 52.190678 45.197601 11.108000 # Og 
320 107 5 0.651200 52.190678 45.197601 9.948000 # Cg 
321 107 10 -0.325600 52.190678 45.197601 8.788000 # Og 
322 108 10 -0.325600 52.190678 45.197601 11.319000 # Og 
323 108 5 0.651200 52.190678 45.197601 10.159000 # Cg 
324 108 10 -0.325600 52.190678 45.197601 8.999000 # Og 
325 109 10 -0.325600 52.190678 45.197601 11.531000 # Og 
326 109 5 0.651200 52.190678 45.197601 10.371000 # Cg 
327 109 10 -0.325600 52.190678 45.197601 9.211000 # Og 
328 110 10 -0.325600 52.190678 45.197601 11.743000 # Og 
329 110 5 0.651200 52.190678 45.197601 10.583000 # Cg 
330 110 10 -0.325600 52.190678 45.197601 9.423000 # Og 
331 111 10 -0.325600 52.190678 45.197601 11.955000 # Og 
332 111 5 0.651200 52.190678 45.197601 10.795000 # Cg 
333 111 10 -0.325600 52.190678 45.197601 9.635000 # Og 
334 112 10 -0.325600 52.190678 45.197601 12.166000 # Og 
335 112 5 0.651200 52.190678 45.197601 11.006000 # Cg 
336 112 10 -0.325600 52.190678 45.197601 9.846000 # Og 
337 113 10 -0.325600 52.190678 45.197601 12.378000 # Og 
338 113 5 0.651200 52.190678 45.197601 11.218000 # Cg 
339 113 10 -0.325600 52.190678 45.197601 10.058000 # Og 
340 114 10 -0.325600 52.190678 45.197601 12.590000 # Og 
341 114 5 0.651200 52.190678 45.197601 11.430000 # Cg 
342 114 10 -0.325600 52.190678 45.197601 10.270000 # Og 
343 115 10 -0.325600 52.190678 45.197601 12.802000 # Og 
344 115 5 0.651200 52.190678 45.197601 11.642000 # Cg 
345 115 10 -0.325600 52.190678 45.197601 10.482000 # Og 
346 116 10 -0.325600 52.190678 45.197601 13.013000 # Og 
347 116 5 0.651200 52.190678 45.197601 11.853000 # Cg 
348 116 10 -0.325600 52.190678 45.197601 10.693000 # Og 
349 117 10 -0.325600 52.190678 45.197601 13.225000 # Og 
350 117 5 0.651200 52.190678 45.197601 12.065000 # Cg 
351 117 10 -0.325600 52.190678 45.197601 10.905000 # Og 
352 118 10 -0.325600 52.190678 45.197601 13.437000 # Og 
353 118 5 0.651200 52.190678 45.197601 12.277000 # Cg 
354 118 10 -0.325600 52.190678 45.197601 11.117000 # Og 
355 119 10 -0.325600 52.190678 45.197601 13.649000 # Og 
356 119 5 0.651200 52.190678 45.197601 12.489000 # Cg 
357 119 10 -0.325600 52.190678 45.197601 11.329000 # Og 
358 120 10 -0.325600 52.190678 45.197601 13.860000 # Og 
359 120 5 0.651200 52.190678 45.197601 12.700000 # Cg 
360 120 10 -0.325600 52.190678 45.197601 11.540000 # Og 
361 121 10 -0.325600 52.190678 45.197601 14.072000 # Og 
362 121 5 0.651200 52.190678 45.197601 12.912000 # Cg 
363 121 10 -0.325600 52.190678 45.197601 11.752000 # Og 
364 122 10 -0.325600 52.190678 45.197601 14.284000 # Og 
365 122 5 0.651200 52.190678 45.197601 13.124000 # Cg 
366 122 10 -0.325600 52.190678 45.197601 11.964000 # Og 
367 123 10 -0.325600 52.190678 45.197601 14.496000 # Og 
368 123 5 0.651200 52.190678 45.197601 13.336000 # Cg 
369 123 10 -0.325600 52.190678 45.197601 12.176000 # Og 
370 124 10 -0.325600 52.190678 45.197601 14.707000 # Og 
371 124 5 0.651200 52.190678 45.197601 13.547000 # Cg 
372 124 10 -0.325600 52.190678 45.197601 12.387000 # Og 
373 125 10 -0.325600 52.190678 45.197601 14.919000 # Og 
374 125 5 0.651200 52.190678 45.197601 13.759000 # Cg 
375 125 10 -0.325600 52.190678 45.197601 12.599000 # Og 
376 126 10 -0.325600 52.190678 45.197601 15.131000 # Og 
377 126 5 0.651200 52.190678 45.197601 13.971000 # Cg 
378 126 10 -0.325600 52.190678 45.197601 12.811000 # Og 
379 127 10 -0.325600 52.190678 45.197601 15.343000 # Og 
380 127 5 0.651200 52.190678 45.197601 14.183000 # Cg 
381 127 10 -0.325600 52.190678 45.197601 13.023000 # Og 
382 128 10 -0.325600 52.190678 45.197601 15.554000 # Og 
383 128 5 0.651200 52.190678 45.197601 14.394000 # Cg 
384 128 10 -0.325600 52.190678 45.197601 13.234000 # Og 
385 129 10 -0.325600 52.190678 45.197601 15.766000 # Og 
386 129 5 0.651200 52.190678 45.197601 14.606000 # Cg 
387 129 10 -0.325600 52.190678 45.197601 13.446000 # Og 
388 130 10 -0.325600 52.190678 45.197601 15.978000 # Og 
389 130 5 0.651200 52.190678 45.197601 14.818000 # Cg 
390 130 10 -0.325600 52.190678 45.197601 13.658000 # Og 
391 131 10 -0.325600 52.190678 22.599600 16.188999 # Og 
392 131 5 0.651200 52.190678 22.599600 15.029000 # Cg 
393 131 10 -0.325600 52.190678 22.599600 13.869000 # Og 
394 132 10 -0.325600 52.190678 22.599600 16.401001 # Og 
395 132 5 0.651200 52.190678 22.599600 15.241000 # Cg 
396 132 10 -0.325600 52.190678 22.599600 14.081000 # Og 
397 133 10 -0.325600 52.190678 22.599600 16.613001 # Og 
398 133 5 0.651200 52.190678 22.599600 15.453000 # Cg 
399 133 10 -0.325600 52.190678 22.599600 14.293000 # Og 
400 134 10 -0.325600 52.190678 22.599600 16.824001 # Og 
401 134 5 0.651200 52.190678 22.599600 15.664001 # Cg 
402 134 10 -0.325600 52.190678 22.599600 14.504001 # Og 
403 135 10 -0.325600 52.190678 22.599600 17.035999 # Og 
404 135 5 0.651200 52.190678 22.599600 15.876000 # Cg 
405 135 10 -0.325600 52.190678 22.599600 14.716001 # Og 
406 136 10 -0.325600 52.190678 22.599600 17.248001 # Og 
407 136 5 0.651200 52.190678 22.599600 16.088001 # Cg 
408 136 10 -0.325600 52.190678 22.599600 14.928000 # Og 
409 137 10 -0.325600 52.190678 22.599600 17.459999 # Og 
410 137 5 0.651200 52.190678 22.599600 16.299999 # Cg 
411 137 10 -0.325600 52.190678 22.599600 15.140000 # Og 
412 138 10 -0.325600 52.190678 22.599600 17.671001 # Og 
413 138 5 0.651200 52.190678 22.599600 16.511002 # Cg 
414 138 10 -0.325600 52.190678 22.599600 15.351001 # Og 
415 139 10 -0.325600 52.190678 22.599600 17.882999 # Og 
416 139 5 0.651200 52.190678 22.599600 16.723000 # Cg 
417 139 10 -0.325600 52.190678 22.599600 15.563001 # Og 
418 140 10 -0.325600 52.190678 22.599600 18.095001 # Og 
419 140 5 0.651200 52.190678 22.599600 16.935001 # Cg 
420 140 10 -0.325600 52.190678 22.599600 15.775001 # Og 
421 141 10 -0.325600 52.190678 22.599600 18.306999 # Og 
422 141 5 0.651200 52.190678 22.599600 17.146999 # Cg 
423 141 10 -0.325600 52.190678 22.599600 15.987000 # Og 
424 142 10 -0.325600 52.190678 22.599600 18.518002 # Og 
425 142 5 0.651200 52.190678 22.599600 17.358002 # Cg 
426 142 10 -0.325600 52.190678 22.599600 16.198000 # Og 
427 143 10 -0.325600 52.190678 22.599600 18.730000 # Og 
428 143 5 0.651200 52.190678 22.599600 17.570000 # Cg 
429 143 10 -0.325600 52.190678 22.599600 16.410000 # Og 
430 144 10 -0.325600 52.190678 22.599600 18.942001 # Og 
431 144 5 0.651200 52.190678 22.599600 17.782001 # Cg 
432 144 10 -0.325600 52.190678 22.599600 16.622002 # Og 
433 145 10 -0.325600 52.190678 22.599600 19.153999 # Og 
434 145 5 0.651200 52.190678 22.599600 17.993999 # Cg 
435 145 10 -0.325600 52.190678 22.599600 16.834000 # Og 
436 146 10 -0.325600 52.190678 22.599600 19.365002 # Og 
437 146 5 0.651200 52.190678 22.599600 18.205002 # Cg 
438 146 10 -0.325600 52.190678 22.599600 17.045000 # Og 
439 147 10 -0.325600 52.190678 22.599600 19.577000 # Og 
440 147 5 0.651200 52.190678 22.599600 18.417000 # Cg 
441 147 10 -0.325600 52.190678 22.599600 17.257000 # Og 
442 148 10 -0.325600 52.190678 22.599600 19.789001 # Og 
443 148 5 0.651200 52.190678 22.599600 18.629002 # Cg 
444 148 10 -0.325600 52.190678 22.599600 17.469002 # Og 
445 149 10 -0.325600 52.190678 22.599600 20.000999 # Og 
446 149 5 0.651200 52.190678 22.599600 18.841000 # Cg 
447 149 10 -0.325600 52.190678 22.599600 17.681000 # Og 
448 150 10 -0.325600 52.190678 22.599600 20.212000 # Og 
449 150 5 0.651200 52.190678 22.599600 19.052000 # Cg 
450 150 10 -0.325600 52.190678 22.599600 17.892000 # Og 
451 151 10 -0.325600 52.190678 22.599600 20.424000 # Og 
452 151 5 0.651200 52.190678 22.599600 19.264000 # Cg 
453 151 10 -0.325600 52.190678 22.599600 18.104000 # Og 
454 152 10 -0.325600 52.190678 22.599600 20.636002 # Og 
455 152 5 0.651200 52.190678 22.599600 19.476002 # Cg 
456 152 10 -0.325600 52.190678 22.599600 18.316000 # Og 
457 153 10 -0.325600 52.190678 22.599600 20.848000 # Og 
458 153 5 0.651200 52.190678 22.599600 19.688000 # Cg 
459 153 10 -0.325600 52.190678 22.599600 18.528000 # Og 
460 154 10 -0.325600 52.190678 22.599600 21.059000 # Og 
461 154 5 0.651200 52.190678 22.599600 19.899000 # Cg 
462 154 10 -0.325600 52.190678 22.599600 18.739000 # Og 
463 155 10 -0.325600 52.190678 22.599600 21.271000 # Og 
464 155 5 0.651200 52.190678 22.599600 20.111000 # Cg 
465 155 10 -0.325600 52.190678 22.599600 18.951000 # Og 
466 156 10 -0.325600 52.190678 22.599600 21.483000 # Og 
467 156 5 0.651200 52.190678 22.599600 20.323000 # Cg 
468 156 10 -0.325600 52.190678 22.599600 19.163000 # Og 
469 157 10 -0.325600 52.190678 22.599600 21.695000 # Og 
470 157 5 0.651200 52.190678 22.599600 20.535000 # Cg 
471 157 10 -0.325600 52.190678 22.599600 19.375000 # Og 
472 158 10 -0.325600 52.190678 22.599600 21.906000 # Og 
473 158 5 0.651200 52.190678 22.599600 20.746000 # Cg 
474 158 10 -0.325600 52.190678 22.599600 19.586000 # Og 
475 159 10 -0.325600 52.190678 22.599600 22.118000 # Og 
476 159 5 0.651200 52.190678 22.599600 20.958000 # Cg 
477 159 10 -0.325600 52.190678 22.599600 19.798000 # Og 
478 160 10 -0.325600 52.190678 22.599600 22.330000 # Og 
479 160 5 0.651200 52.190678 22.599600 21.170000 # Cg 
480 160 10 -0.325600 52.190678 22.599600 20.010000 # Og 
481 161 10 -0.325600 52.190678 22.599600 22.542000 # Og 
482 161 5 0.651200 52.190678 22.599600 21.382000 # Cg 
483 161 10 -0.325600 52.190678 22.599600 20.222000 # Og 
484 162 10 -0.325600 52.190678 22.599600 22.753000 # Og 
485 162 5 0.651200 52.190678 22.599600 21.593000 # Cg 
486 162 10 -0.325600 52.190678 22.599600 20.433001 # Og 
487 163 10 -0.325600 52.190678 22.599600 22.965000 # Og 
488 163 5 0.651200 52.190678 22.599600 21.805000 # Cg 
489 163 10 -0.325600 52.190678 22.599600 20.645000 # Og 
490 164 10 -0.325600 52.190678 22.599600 23.177000 # Og 
491 164 5 0.651200 52.190678 22.599600 22.017000 # Cg 
492 164 10 -0.325600 52.190678 22.599600 20.857000 # Og 
493 165 10 -0.325600 52.190678 22.599600 23.389000 # Og 
494 165 5 0.651200 52.190678 22.599600 22.229000 # Cg 
495 165 10 -0.325600 52.190678 22.599600 21.069000 # Og 
496 166 10 -0.325600 52.190678 22.599600 23.600000 # Og 
497 166 5 0.651200 52.190678 22.599600 22.440001 # Cg 
498 166 10 -0.325600 52.190678 22.599600 21.280001 # Og 
499 167 10 -0.325600 52.190678 22.599600 23.812000 # Og 
500 167 5 0.651200 52.190678 22.599600 22.652000 # Cg 
501 167 10 -0.325600 52.190678 22.599600 21.492001 # Og 
502 168 10 -0.325600 52.190678 22.599600 24.024000 # Og 
503 168 5 0.651200 52.190678 22.599600 22.864000 # Cg 
504 168 10 -0.325600 52.190678 22.599600 21.704000 # Og 
505 169 10 -0.325600 52.190678 22.599600 24.236000 # Og 
506 169 5 0.651200 52.190678 22.599600 23.076000 # Cg 
507 169 10 -0.325600 52.190678 22.599600 21.916000 # Og 
508 170 10 -0.325600 52.190678 22.599600 24.447001 # Og 
509 170 5 0.651200 52.190678 22.599600 23.287001 # Cg 
510 170 10 -0.325600 52.190678 22.599600 22.127001 # Og 
511 171 10 -0.325600 52.190678 22.599600 24.659000 # Og 
512 171 5 0.651200 52.190678 22.599600 23.499001 # Cg 
513 171 10 -0.325600 52.190678 22.599600 22.339001 # Og 
514 172 10 -0.325600 52.190678 22.599600 24.871000 # Og 
515 172 5 0.651200 52.190678 22.599600 23.711000 # Cg 
516 172 10 -0.325600 52.190678 22.599600 22.551001 # Og 
517 173 10 -0.325600 52.190678 22.599600 25.083000 # Og 
518 173 5 0.651200 52.190678 22.599600 23.923000 # Cg 
519 173 10 -0.325600 52.190678 22.599600 22.763000 # Og 
520 174 10 -0.325600 52.190678 22.599600 25.294001 # Og 
521 174 5 0.651200 52.190678 22.599600 24.134001 # Cg 
522 174 10 -0.325600 52.190678 22.599600 22.974001 # Og 
523 175 10 -0.325600 52.190678 22.599600 25.506001 # Og 
524 175 5 0.651200 52.190678 22.599600 24.346001 # Cg 
525 175 10 -0.325600 52.190678 22.599600 23.186001 # Og 
526 176 10 -0.325600 52.190678 22.599600 25.718000 # Og 
527 176 5 0.651200 52.190678 22.599600 24.558001 # Cg 
528 176 10 -0.325600 52.190678 22.599600 23.398001 # Og 
529 177 10 -0.325600 52.190678 22.599600 25.930000 # Og 
530 177 5 0.651200 52.190678 22.599600 24.770000 # Cg 