LAMMPS data file. CGCMM style. atom_style full generated by VMD/TopoTools v1.5 on Sun Mar 05 19:09:38 PST 2017
 1317 atoms
 0 bonds
 0 angles
 0 dihedrals
 0 impropers
 10 atom types
 0 bond types
 0 angle types
 0 dihedral types
 0 improper types
 0.444700 26.558700  xlo xhi
 0.314250 45.544250  ylo yhi
 -0.000021 27.666979  zlo zhi

# Pair Coeffs
#
# 1  CH4
# 2  Ca
# 3  Cb
# 4  Cc
# 5  Cd
# 6  H
# 7  Mg
# 8  Oa
# 9  Ob
# 10  Oc

 Masses

 1 16.040001 # CH4
 2 12.011000 # Ca
 3 12.011000 # Cb
 4 12.011000 # Cc
 5 12.011000 # Cd
 6 1.008000 # H
 7 24.305000 # Mg
 8 15.999000 # Oa
 9 15.999000 # Ob
 10 15.999000 # Oc

 Atoms

1 1 1 0.000000 26.114401 45.230499 16.139000 # CH4 
2 1 1 0.000000 26.114401 45.230499 20.750000 # CH4 
3 1 1 0.000000 26.114401 45.230499 25.361000 # CH4 
4 1 1 0.000000 26.114401 45.230499 2.306000 # CH4 
5 1 1 0.000000 26.114401 45.230499 6.917000 # CH4 
6 1 1 0.000000 26.114401 45.230499 11.528000 # CH4 
7 1 1 0.000000 26.114401 22.614500 16.139000 # CH4 
8 1 1 0.000000 26.114401 22.614500 20.750000 # CH4 
9 1 1 0.000000 26.114401 22.614500 25.361000 # CH4 
10 1 1 0.000000 26.114401 22.614500 2.306000 # CH4 
11 1 1 0.000000 26.114401 22.614500 6.917000 # CH4 
12 1 1 0.000000 26.114401 22.614500 11.528000 # CH4 
13 1 1 0.000000 13.056400 45.230499 16.139000 # CH4 
14 1 1 0.000000 13.056400 45.230499 20.750000 # CH4 
15 1 1 0.000000 13.056400 45.230499 25.361000 # CH4 
16 1 1 0.000000 13.056400 45.230499 2.306000 # CH4 
17 1 1 0.000000 13.056400 45.230499 6.917000 # CH4 
18 1 1 0.000000 13.056400 45.230499 11.528000 # CH4 
19 1 1 0.000000 13.056400 22.614500 16.139000 # CH4 
20 1 1 0.000000 13.056400 22.614500 20.750000 # CH4 
21 1 1 0.000000 13.056400 22.614500 25.361000 # CH4 
22 1 7 0.000000 5.314000 7.966000 21.684460 # Mg LIG
23 2 7 0.000000 18.371000 30.580999 21.684460 # Mg LIG
24 3 7 0.000000 4.242000 6.491000 19.378460 # Mg LIG
25 4 7 0.000000 17.299000 29.106001 19.378460 # Mg LIG
26 1 7 0.000000 3.501000 8.158000 23.990459 # Mg LIG
27 2 7 0.000000 16.558001 30.773001 23.990459 # Mg LIG
28 5 7 0.000000 7.743000 14.649000 19.815460 # Mg LIG
29 6 7 0.000000 20.799000 37.264000 19.815460 # Mg LIG
30 7 7 0.000000 8.815000 16.124001 22.120461 # Mg LIG
31 8 7 0.000000 21.872000 38.738998 22.120461 # Mg LIG
32 3 7 0.000000 9.556000 14.457000 17.509460 # Mg LIG
33 4 7 0.000000 22.613001 37.071999 17.509460 # Mg LIG
34 9 7 0.000000 8.815000 31.200001 19.815460 # Mg LIG
35 10 7 0.000000 21.872000 8.585000 19.815460 # Mg LIG
36 11 7 0.000000 9.556000 29.534000 22.120461 # Mg LIG
37 12 7 0.000000 22.613001 6.919000 22.120461 # Mg LIG
38 5 7 0.000000 4.242000 21.568001 23.990459 # Mg LIG
39 13 7 0.000000 17.299000 44.182999 23.990459 # Mg LIG
40 14 7 0.000000 8.815000 1.047000 17.509460 # Mg LIG
41 8 7 0.000000 21.872000 23.662001 17.509460 # Mg LIG
42 9 7 0.000000 5.314000 38.118999 23.990459 # Mg LIG
43 10 7 0.000000 18.371000 15.504000 23.990459 # Mg LIG
44 15 7 0.000000 7.743000 44.801998 22.120461 # Mg LIG
45 16 7 0.000000 20.799000 22.187000 22.120461 # Mg LIG
46 17 7 0.000000 9.556000 44.611000 19.815460 # Mg LIG
47 18 7 0.000000 22.613001 21.996000 19.815460 # Mg LIG
48 19 7 0.000000 3.501000 38.311001 19.378460 # Mg LIG
49 20 7 0.000000 16.558001 15.696000 19.378460 # Mg LIG
50 21 7 0.000000 4.242000 36.645000 21.684460 # Mg LIG
51 22 7 0.000000 17.299000 14.030000 21.684460 # Mg LIG
52 23 7 0.000000 5.314000 23.042999 19.378460 # Mg LIG
53 24 7 0.000000 18.371000 0.428000 19.378460 # Mg LIG
54 25 7 0.000000 3.501000 23.233999 21.684460 # Mg LIG
55 26 7 0.000000 16.558001 0.619000 21.684460 # Mg LIG
56 13 7 0.000000 7.743000 29.726000 17.509460 # Mg LIG
57 14 7 0.000000 20.799000 7.111000 17.509460 # Mg LIG
58 3 2 0.000000 5.704000 9.170000 19.055460 # Ca LIG
59 4 2 0.000000 18.761000 31.785000 19.055460 # Ca LIG
60 27 3 0.000000 6.098000 10.247000 18.115459 # Cb LIG
61 28 3 0.000000 19.155001 32.862000 18.115459 # Cb LIG
62 27 5 0.000000 6.932000 11.258000 18.610460 # Cd LIG
63 28 5 0.000000 19.989000 33.873001 18.610460 # Cd LIG
64 27 6 0.000000 7.248000 11.206000 19.650459 # H LIG
65 28 6 0.000000 20.305000 33.820999 19.650459 # H LIG
66 3 9 0.000000 6.149000 9.140000 20.245461 # Ob LIG
67 4 9 0.000000 19.205999 31.754999 20.245461 # Ob LIG
68 3 8 0.000000 4.881000 8.269000 18.627460 # Oa LIG
69 4 8 0.000000 17.938000 30.884001 18.627460 # Oa LIG
70 27 10 0.000000 8.183000 13.257000 18.410460 # Oc LIG
71 28 10 0.000000 21.240000 35.872002 18.410460 # Oc LIG
72 1 8 0.000000 4.721000 6.715000 23.238461 # Oa LIG
73 2 8 0.000000 17.777000 29.330000 23.238461 # Oa LIG
74 1 8 0.000000 3.455000 7.631000 20.933460 # Oa LIG
75 2 8 0.000000 16.511000 30.246000 20.933460 # Oa LIG
76 29 10 0.000000 4.874000 9.358000 23.088459 # Oc LIG
77 30 10 0.000000 17.930000 31.973000 23.088459 # Oc LIG
78 31 10 0.000000 5.668000 6.177000 20.783461 # Oc LIG
79 32 10 0.000000 18.725000 28.792000 20.783461 # Oc LIG
80 29 4 0.000000 5.672000 10.284000 23.664459 # Cc LIG
81 30 4 0.000000 18.729000 32.898998 23.664459 # Cc LIG
82 7 2 0.000000 7.353000 13.445000 22.444460 # Ca LIG
83 8 2 0.000000 20.409000 36.060001 22.444460 # Ca LIG
84 29 3 0.000000 6.959000 12.368000 23.384460 # Cb LIG
85 30 3 0.000000 20.016001 34.983002 23.384460 # Cb LIG
86 27 4 0.000000 7.384000 12.331000 17.835461 # Cc LIG
87 28 4 0.000000 20.441000 34.945999 17.835461 # Cc LIG
88 29 5 0.000000 6.125000 11.357000 22.889460 # Cd LIG
89 30 5 0.000000 19.181000 33.972000 22.889460 # Cd LIG
90 29 6 0.000000 5.809000 11.409000 21.849461 # H LIG
91 30 6 0.000000 18.865999 34.023998 21.849461 # H LIG
92 7 9 0.000000 6.908000 13.475000 21.254459 # Ob LIG
93 8 9 0.000000 19.965000 36.090000 21.254459 # Ob LIG
94 7 8 0.000000 8.175000 14.346000 22.871460 # Oa LIG
95 8 8 0.000000 21.232000 36.960999 22.871460 # Oa LIG
96 3 8 0.000000 8.336000 15.900000 18.260460 # Oa LIG
97 4 8 0.000000 21.393000 38.514999 18.260460 # Oa LIG
98 5 8 0.000000 9.602000 14.984000 20.566460 # Oa LIG
99 6 8 0.000000 22.659000 37.598999 20.566460 # Oa LIG
100 32 10 0.000000 7.389000 16.438000 20.716461 # Oc LIG
101 32 10 0.000000 20.445999 39.053001 20.716461 # Oc LIG
102 13 8 0.000000 9.602000 30.059999 18.260460 # Oa LIG
103 14 8 0.000000 22.659000 7.445000 18.260460 # Oa LIG
104 11 8 0.000000 8.336000 30.976999 22.871460 # Oa LIG
105 12 8 0.000000 21.393000 8.362000 22.871460 # Oa LIG
106 25 8 0.000000 4.721000 21.791000 20.933460 # Oa LIG
107 32 8 0.000000 17.777000 44.405998 20.933460 # Oa LIG
108 32 10 0.000000 5.668000 21.254000 18.477459 # Oc LIG
109 32 10 0.000000 18.725000 43.868999 18.477459 # Oc LIG
110 32 8 0.000000 8.336000 0.824000 20.566460 # Oa LIG
111 18 8 0.000000 21.393000 23.438999 20.566460 # Oa LIG
112 32 10 0.000000 7.389000 1.361000 23.021460 # Oc LIG
113 32 10 0.000000 20.445999 23.976000 23.021460 # Oc LIG
114 32 10 0.000000 4.874000 39.512001 18.477459 # Oc LIG
115 32 10 0.000000 17.930000 16.896999 18.477459 # Oc LIG
116 21 2 0.000000 5.704000 39.324001 21.360460 # Ca LIG
117 22 2 0.000000 18.761000 16.709000 21.360460 # Ca LIG
118 32 3 0.000000 6.098000 40.401001 20.421459 # Cb LIG
119 32 3 0.000000 19.155001 17.785999 20.421459 # Cb LIG
120 32 4 0.000000 5.672000 40.438000 19.053459 # Cc LIG
121 32 4 0.000000 18.729000 17.823000 19.053459 # Cc LIG
122 32 5 0.000000 6.932000 41.410999 20.916460 # Cd LIG
123 32 5 0.000000 19.989000 18.796000 20.916460 # Cd LIG
124 32 6 0.000000 7.248000 41.359001 21.955460 # H LIG
125 32 6 0.000000 20.305000 18.743999 21.955460 # H LIG
126 21 9 0.000000 6.149000 39.292999 22.550461 # Ob LIG
127 22 9 0.000000 19.205999 16.677999 22.550461 # Ob LIG
128 21 8 0.000000 4.882000 38.423000 20.933460 # Oa LIG
129 22 8 0.000000 17.938000 15.808000 20.933460 # Oa LIG
130 32 3 0.000000 6.959000 42.521000 18.773460 # Cb LIG
131 32 3 0.000000 20.016001 19.906000 18.773460 # Cb LIG
132 32 4 0.000000 7.384000 42.484001 20.140461 # Cc LIG
133 32 4 0.000000 20.441000 19.868999 20.140461 # Cc LIG
134 32 5 0.000000 6.125000 41.509998 18.277460 # Cd LIG
135 32 5 0.000000 19.181000 18.895000 18.277460 # Cd LIG
136 32 8 0.000000 8.175000 44.499001 18.260460 # Oa LIG
137 8 8 0.000000 21.232000 21.884001 18.260460 # Oa LIG
138 32 10 0.000000 8.183000 43.410000 20.716461 # Oc LIG
139 32 10 0.000000 21.240000 20.795000 20.716461 # Oc LIG
140 32 10 0.000000 5.668000 36.330002 23.088459 # Oc LIG
141 32 10 0.000000 18.725000 13.715000 23.088459 # Oc LIG
142 32 2 0.000000 7.353000 43.598000 17.833460 # Ca LIG
143 8 2 0.000000 20.409000 20.983000 17.833460 # Ca LIG
144 33 9 0.000000 6.908000 43.627998 23.559460 # Ob LIG
145 34 9 0.000000 19.965000 21.013000 23.559460 # Ob LIG
146 15 8 0.000000 9.602000 45.137001 22.871460 # Oa LIG
147 16 8 0.000000 22.659000 22.521999 22.871460 # Oa LIG
148 19 8 0.000000 4.721000 36.868000 18.627460 # Oa LIG
149 20 8 0.000000 17.778000 14.253000 18.627460 # Oa LIG
150 9 8 0.000000 3.455000 37.785000 23.238461 # Oa LIG
151 10 8 0.000000 16.511000 15.170000 23.238461 # Oa LIG
152 32 10 0.000000 2.515000 22.156000 23.088459 # Oc LIG
153 32 10 0.000000 15.572000 44.771000 23.088459 # Oc LIG
154 32 4 0.000000 1.314000 22.385000 23.664459 # Cc LIG
155 32 4 0.000000 14.371000 45.000000 23.664459 # Cc LIG
156 15 2 0.000000 10.794000 44.875000 22.444460 # Ca LIG
157 16 2 0.000000 23.851000 22.260000 22.444460 # Ca LIG
158 32 3 0.000000 11.924000 45.073002 23.384460 # Cb LIG
159 16 3 0.000000 24.980000 22.458000 23.384460 # Cb LIG
160 32 5 0.000000 0.159000 22.240999 22.889460 # Cd LIG
161 32 5 0.000000 13.216000 44.855999 22.889460 # Cd LIG
162 32 6 0.000000 0.271000 21.941000 21.849461 # H LIG
163 32 6 0.000000 13.328000 44.556000 21.849461 # H LIG
164 15 9 0.000000 10.990000 44.474998 21.254459 # Ob LIG
165 16 9 0.000000 24.047001 21.860001 21.254459 # Ob LIG
166 32 4 0.000000 6.070000 35.174999 23.664459 # Cc LIG
167 32 4 0.000000 19.127001 12.560000 23.664459 # Cc LIG
168 11 2 0.000000 7.967000 32.139999 22.444460 # Ca LIG
169 12 2 0.000000 21.024000 9.525000 22.444460 # Ca LIG
170 32 3 0.000000 7.231000 33.020000 23.384460 # Cb LIG
171 32 3 0.000000 20.288000 10.405000 23.384460 # Cb LIG
172 32 5 0.000000 6.773000 34.248001 22.889460 # Cd LIG
173 32 5 0.000000 19.830000 11.633000 22.889460 # Cd LIG
174 32 6 0.000000 6.977000 34.494999 21.849461 # H LIG
175 32 6 0.000000 20.033001 11.880000 21.849461 # H LIG
176 11 9 0.000000 8.216000 32.509998 21.254459 # Ob LIG
177 12 9 0.000000 21.273001 9.895000 21.254459 # Ob LIG
178 32 10 0.000000 10.541000 30.612000 20.716461 # Oc LIG
179 32 10 0.000000 23.598000 7.997000 20.716461 # Oc LIG
180 19 2 0.000000 5.090000 35.705002 19.055460 # Ca LIG
181 20 2 0.000000 18.146000 13.090000 19.055460 # Ca LIG
182 32 3 0.000000 5.826000 34.825001 18.115459 # Cb LIG
183 32 3 0.000000 18.882000 12.210000 18.115459 # Cb LIG
184 32 5 0.000000 6.284000 33.597000 18.610460 # Cd LIG
185 32 5 0.000000 19.341000 10.982000 18.610460 # Cd LIG
186 32 6 0.000000 6.080000 33.349998 19.650459 # H LIG
187 32 6 0.000000 19.136999 10.735000 19.650459 # H LIG
188 19 9 0.000000 4.841000 35.334999 20.245461 # Ob LIG
189 20 9 0.000000 17.898001 12.720000 20.245461 # Ob LIG
190 32 10 0.000000 2.515000 37.233002 20.783461 # Oc LIG
191 32 10 0.000000 15.572000 14.618000 20.783461 # Oc LIG
192 35 9 0.000000 2.067000 38.446999 17.939461 # Ob LIG
193 36 9 0.000000 15.124000 15.832000 17.939461 # Ob LIG
194 9 2 0.000000 2.263000 38.046001 23.666460 # Ca LIG
195 10 2 0.000000 15.320000 15.431000 23.666460 # Ca LIG
196 32 3 0.000000 1.133000 37.848999 22.726460 # Cb LIG
197 32 3 0.000000 14.190000 15.234000 22.726460 # Cb LIG
198 32 4 0.000000 1.314000 37.462002 21.358459 # Cc LIG
199 32 4 0.000000 14.371000 14.847000 21.358459 # Cc LIG
200 32 5 0.000000 12.898000 15.451000 23.221460 # Cd LIG
201 32 5 0.000000 25.954000 38.066002 23.221460 # Cd LIG
202 37 6 0.000000 12.785000 15.751000 17.344460 # H LIG
203 38 6 0.000000 25.841999 38.366001 17.344460 # H LIG
204 5 2 0.000000 10.794000 14.722000 20.138460 # Ca LIG
205 6 2 0.000000 23.851000 37.337002 20.138460 # Ca LIG
206 32 3 0.000000 11.924000 14.919000 21.078461 # Cb LIG
207 32 3 0.000000 24.980000 37.534000 21.078461 # Cb LIG
208 32 4 0.000000 11.743000 15.306000 22.446461 # Cc LIG
209 32 4 0.000000 24.799000 37.921001 22.446461 # Cc LIG
210 32 5 0.000000 0.159000 37.317001 20.583460 # Cd LIG
211 32 5 0.000000 13.216000 14.702000 20.583460 # Cd LIG
212 32 6 0.000000 0.272000 37.016998 19.543461 # H LIG
213 32 6 0.000000 13.328000 14.402000 19.543461 # H LIG
214 5 9 0.000000 10.990000 14.322000 18.948460 # Ob LIG
215 6 9 0.000000 24.047001 36.937000 18.948460 # Ob LIG
216 32 10 0.000000 10.541000 15.535000 23.021460 # Oc LIG
217 32 10 0.000000 23.598000 38.150002 23.021460 # Oc LIG
218 39 9 0.000000 4.841000 5.182000 17.939461 # Ob LIG
219 40 9 0.000000 17.898001 27.797001 17.939461 # Ob LIG
220 32 10 0.000000 2.515000 7.080000 18.477459 # Oc LIG
221 32 10 0.000000 15.572000 29.695000 18.477459 # Oc LIG
222 1 2 0.000000 5.090000 5.552000 23.666460 # Ca LIG
223 2 2 0.000000 18.146000 28.167000 23.666460 # Ca LIG
224 32 3 0.000000 5.826000 4.672000 22.726460 # Cb LIG
225 32 3 0.000000 18.882000 27.287001 22.726460 # Cb LIG
226 31 4 0.000000 6.070000 5.022000 21.358459 # Cc LIG
227 32 4 0.000000 19.127001 27.636999 21.358459 # Cc LIG
228 32 5 0.000000 6.284000 3.444000 23.221460 # Cd LIG
229 32 5 0.000000 19.340000 26.059000 23.221460 # Cd LIG
230 41 6 0.000000 6.080000 3.197000 17.344460 # H LIG
231 42 6 0.000000 19.136999 25.812000 17.344460 # H LIG
232 32 2 0.000000 7.967000 1.987000 20.138460 # Ca LIG
233 18 2 0.000000 21.024000 24.601999 20.138460 # Ca LIG
234 31 3 0.000000 7.231000 2.866000 21.078461 # Cb LIG
235 32 3 0.000000 20.288000 25.481001 21.078461 # Cb LIG
236 32 4 0.000000 6.987000 2.516000 22.446461 # Cc LIG
237 32 4 0.000000 20.042999 25.131001 22.446461 # Cc LIG
238 31 5 0.000000 6.773000 4.094000 20.583460 # Cd LIG
239 32 5 0.000000 19.830000 26.709000 20.583460 # Cd LIG
240 31 6 0.000000 6.977000 4.341000 19.543461 # H LIG
241 32 6 0.000000 20.033001 26.955999 19.543461 # H LIG
242 32 9 0.000000 8.216000 2.357000 18.948460 # Ob LIG
243 18 9 0.000000 21.273001 24.972000 18.948460 # Ob LIG
244 1 2 0.000000 2.263000 7.893000 21.360460 # Ca LIG
245 2 2 0.000000 15.320000 30.507999 21.360460 # Ca LIG
246 32 3 0.000000 1.133000 7.696000 20.421459 # Cb LIG
247 32 3 0.000000 14.190000 30.311001 20.421459 # Cb LIG
248 32 4 0.000000 1.314000 7.309000 19.053459 # Cc LIG
249 32 4 0.000000 14.371000 29.924000 19.053459 # Cc LIG
250 32 5 0.000000 12.898000 30.528000 20.916460 # Cd LIG
251 32 5 0.000000 25.954000 7.913000 20.916460 # Cd LIG
252 32 6 0.000000 12.785000 30.827999 21.955460 # H LIG
253 32 6 0.000000 25.841999 8.213000 21.955460 # H LIG
254 1 9 0.000000 2.067000 8.293000 22.550461 # Ob LIG
255 2 9 0.000000 15.124000 30.908001 22.550461 # Ob LIG
256 32 3 0.000000 11.924000 29.996000 18.773460 # Cb LIG
257 32 3 0.000000 24.980000 7.381000 18.773460 # Cb LIG
258 32 4 0.000000 11.743000 30.382999 20.140461 # Cc LIG
259 32 4 0.000000 24.799000 7.768000 20.140461 # Cc LIG
260 32 5 0.000000 0.159000 7.164000 18.277460 # Cd LIG
261 32 5 0.000000 13.216000 29.778999 18.277460 # Cd LIG
262 13 2 0.000000 10.794000 29.799000 17.833460 # Ca LIG
263 14 2 0.000000 23.851000 7.184000 17.833460 # Ca LIG
264 43 9 0.000000 10.990000 29.398001 23.559460 # Ob LIG
265 44 9 0.000000 24.047001 6.783000 23.559460 # Ob LIG
266 25 2 0.000000 5.090000 20.628000 21.360460 # Ca LIG
267 32 2 0.000000 18.146000 43.243000 21.360460 # Ca LIG
268 32 3 0.000000 5.826000 19.749001 20.421459 # Cb LIG
269 32 3 0.000000 18.882000 42.363998 20.421459 # Cb LIG
270 32 4 0.000000 6.070000 20.099001 19.053459 # Cc LIG
271 32 4 0.000000 19.127001 42.714001 19.053459 # Cc LIG
272 32 5 0.000000 6.284000 18.521000 20.916460 # Cd LIG
273 32 5 0.000000 19.341000 41.136002 20.916460 # Cd LIG
274 32 6 0.000000 6.080000 18.274000 21.955460 # H LIG
275 32 6 0.000000 19.136999 40.889000 21.955460 # H LIG
276 25 9 0.000000 4.841000 20.257999 22.550461 # Ob LIG
277 32 9 0.000000 17.898001 42.873001 22.550461 # Ob LIG
278 32 3 0.000000 7.231000 17.943001 18.773460 # Cb LIG
279 32 3 0.000000 20.288000 40.557999 18.773460 # Cb LIG
280 32 4 0.000000 6.987000 17.593000 20.140461 # Cc LIG
281 32 4 0.000000 20.042999 40.208000 20.140461 # Cc LIG
282 32 5 0.000000 6.773000 19.171000 18.277460 # Cd LIG
283 32 5 0.000000 19.830000 41.785999 18.277460 # Cd LIG
284 3 2 0.000000 7.967000 17.063000 17.833460 # Ca LIG
285 4 2 0.000000 21.024000 39.678001 17.833460 # Ca LIG
286 45 9 0.000000 8.216000 17.433001 23.559460 # Ob LIG
287 46 9 0.000000 21.273001 40.048000 23.559460 # Ob LIG
288 47 9 0.000000 6.149000 24.216999 17.939461 # Ob LIG
289 48 9 0.000000 19.205999 1.602000 17.939461 # Ob LIG
290 23 8 0.000000 3.455000 22.708000 18.627460 # Oa LIG
291 24 8 0.000000 16.511000 0.093000 18.627460 # Oa LIG
292 32 10 0.000000 4.874000 24.434999 20.783461 # Oc LIG
293 32 10 0.000000 17.930000 1.820000 20.783461 # Oc LIG
294 5 2 0.000000 5.704000 24.247000 23.666460 # Ca LIG
295 32 2 0.000000 18.761000 1.632000 23.666460 # Ca LIG
296 32 3 0.000000 6.098000 25.323999 22.726460 # Cb LIG
297 32 3 0.000000 19.155001 2.709000 22.726460 # Cb LIG
298 32 4 0.000000 5.672000 25.361000 21.358459 # Cc LIG
299 32 4 0.000000 18.729000 2.746000 21.358459 # Cc LIG
300 32 5 0.000000 6.932000 26.334999 23.221460 # Cd LIG
301 32 5 0.000000 19.989000 3.720000 23.221460 # Cd LIG
302 49 6 0.000000 7.248000 26.282000 17.344460 # H LIG
303 50 6 0.000000 20.305000 3.667000 17.344460 # H LIG
304 5 8 0.000000 4.881000 23.346001 23.238461 # Oa LIG
305 32 8 0.000000 17.938000 0.731000 23.238461 # Oa LIG
306 9 2 0.000000 7.353000 28.521000 20.138460 # Ca LIG
307 10 2 0.000000 20.409000 5.906000 20.138460 # Ca LIG
308 32 3 0.000000 6.959000 27.444000 21.078461 # Cb LIG
309 32 3 0.000000 20.016001 4.829000 21.078461 # Cb LIG
310 32 4 0.000000 7.384000 27.407000 22.446461 # Cc LIG
311 32 4 0.000000 20.441000 4.792000 22.446461 # Cc LIG
312 32 5 0.000000 6.125000 26.434000 20.583460 # Cd LIG
313 32 5 0.000000 19.181000 3.819000 20.583460 # Cd LIG
314 32 6 0.000000 5.809000 26.486000 19.543461 # H LIG
315 32 6 0.000000 18.865999 3.871000 19.543461 # H LIG
316 9 9 0.000000 6.908000 28.552000 18.948460 # Ob LIG
317 10 9 0.000000 19.965000 5.937000 18.948460 # Ob LIG
318 9 8 0.000000 8.175000 29.422001 20.566460 # Oa LIG
319 10 8 0.000000 21.232000 6.807000 20.566460 # Oa LIG
320 32 10 0.000000 8.183000 28.333000 23.021460 # Oc LIG
321 32 10 0.000000 21.240000 5.718000 23.021460 # Oc LIG
322 23 2 0.000000 2.263000 22.969999 19.055460 # Ca LIG
323 24 2 0.000000 15.320000 0.355000 19.055460 # Ca LIG
324 23 3 0.000000 1.133000 22.771999 18.115459 # Cb LIG
325 32 3 0.000000 14.190000 0.157000 18.115459 # Cb LIG
326 32 5 0.000000 12.898000 0.374000 18.610460 # Cd LIG
327 32 5 0.000000 25.954000 22.989000 18.610460 # Cd LIG
328 32 6 0.000000 12.785000 0.674000 19.650459 # H LIG
329 32 6 0.000000 25.841999 23.289000 19.650459 # H LIG
330 23 9 0.000000 2.067000 23.370001 20.245461 # Ob LIG
331 24 9 0.000000 15.124000 0.755000 20.245461 # Ob LIG
332 32 10 0.000000 7.389000 31.514999 18.410460 # Oc LIG
333 32 10 0.000000 20.445999 8.900000 18.410460 # Oc LIG
334 51 6 0.000000 5.809000 41.563000 24.154461 # H LIG
335 52 6 0.000000 18.865999 18.948000 24.154461 # H LIG
336 32 10 0.000000 10.541000 0.459000 18.410460 # Oc LIG
337 32 10 0.000000 23.598000 23.073999 18.410460 # Oc LIG
338 32 4 0.000000 11.743000 0.230000 17.835461 # Cc LIG
339 32 4 0.000000 24.799999 22.844999 17.835461 # Cc LIG
340 32 4 0.000000 6.986000 32.669998 17.835461 # Cc LIG
341 32 4 0.000000 20.042999 10.055000 17.835461 # Cc LIG
342 53 6 0.000000 0.271000 6.864000 24.154461 # H LIG
343 54 6 0.000000 13.328000 29.479000 24.154461 # H LIG
344 55 6 0.000000 6.977000 19.417999 24.154461 # H LIG
345 56 6 0.000000 20.033001 42.033001 24.154461 # H LIG
346 1 7 0.000000 5.314000 7.966000 0.934500 # Mg LIG
347 2 7 0.000000 18.371000 30.580999 0.934500 # Mg LIG
348 3 7 0.000000 4.242000 6.491000 26.295460 # Mg LIG
349 4 7 0.000000 17.299000 29.106001 26.295460 # Mg LIG
350 1 7 0.000000 3.501000 8.158000 3.240500 # Mg LIG
351 2 7 0.000000 16.558001 30.773001 3.240500 # Mg LIG
352 5 7 0.000000 7.743000 14.649000 26.732460 # Mg LIG
353 6 7 0.000000 20.799000 37.264000 26.732460 # Mg LIG
354 7 7 0.000000 8.815000 16.124001 1.370500 # Mg LIG
355 8 7 0.000000 21.872000 38.738998 1.370500 # Mg LIG
356 3 7 0.000000 9.556000 14.457000 24.426460 # Mg LIG
357 4 7 0.000000 22.613001 37.071999 24.426460 # Mg LIG
358 9 7 0.000000 8.815000 31.200001 26.732460 # Mg LIG
359 10 7 0.000000 21.872000 8.585000 26.732460 # Mg LIG
360 11 7 0.000000 9.556000 29.534000 1.370500 # Mg LIG
361 12 7 0.000000 22.613001 6.919000 1.370500 # Mg LIG
362 5 7 0.000000 4.242000 21.568001 3.240500 # Mg LIG
363 13 7 0.000000 17.299000 44.182999 3.240500 # Mg LIG
364 14 7 0.000000 8.815000 1.047000 24.426460 # Mg LIG
365 8 7 0.000000 21.872000 23.662001 24.426460 # Mg LIG
366 9 7 0.000000 5.314000 38.118999 3.240500 # Mg LIG
367 10 7 0.000000 18.371000 15.504000 3.240500 # Mg LIG
368 15 7 0.000000 7.743000 44.801998 1.370500 # Mg LIG
369 16 7 0.000000 20.799000 22.187000 1.370500 # Mg LIG
370 17 7 0.000000 9.556000 44.611000 26.732460 # Mg LIG
371 18 7 0.000000 22.613001 21.996000 26.732460 # Mg LIG
372 19 7 0.000000 3.501000 38.311001 26.295460 # Mg LIG
373 20 7 0.000000 16.558001 15.696000 26.295460 # Mg LIG
374 21 7 0.000000 4.242000 36.645000 0.934500 # Mg LIG
375 22 7 0.000000 17.299000 14.030000 0.934500 # Mg LIG
376 23 7 0.000000 5.314000 23.042999 26.295460 # Mg LIG
377 24 7 0.000000 18.371000 0.428000 26.295460 # Mg LIG
378 25 7 0.000000 3.501000 23.233999 0.934500 # Mg LIG
379 26 7 0.000000 16.558001 0.619000 0.934500 # Mg LIG
380 13 7 0.000000 7.743000 29.726000 24.426460 # Mg LIG
381 14 7 0.000000 20.799000 7.111000 24.426460 # Mg LIG
382 3 2 0.000000 5.704000 9.170000 25.972460 # Ca LIG
383 4 2 0.000000 18.761000 31.785000 25.972460 # Ca LIG
384 27 3 0.000000 6.098000 10.247000 25.032459 # Cb LIG
385 28 3 0.000000 19.155001 32.862000 25.032459 # Cb LIG
386 27 5 0.000000 6.932000 11.258000 25.527460 # Cd LIG
387 28 5 0.000000 19.989000 33.873001 25.527460 # Cd LIG
388 27 6 0.000000 7.248000 11.206000 26.567459 # H LIG
389 28 6 0.000000 20.305000 33.820999 26.567459 # H LIG
390 3 9 0.000000 6.149000 9.140000 27.162460 # Ob LIG
391 4 9 0.000000 19.205999 31.754999 27.162460 # Ob LIG
392 3 8 0.000000 4.881000 8.269000 25.544460 # Oa LIG
393 4 8 0.000000 17.938000 30.884001 25.544460 # Oa LIG
394 27 10 0.000000 8.183000 13.257000 25.327459 # Oc LIG
395 28 10 0.000000 21.240000 35.872002 25.327459 # Oc LIG
396 1 8 0.000000 4.721000 6.715000 2.488500 # Oa LIG
397 2 8 0.000000 17.777000 29.330000 2.488500 # Oa LIG
398 1 8 0.000000 3.455000 7.631000 0.183500 # Oa LIG
399 2 8 0.000000 16.511000 30.246000 0.183500 # Oa LIG
400 29 10 0.000000 4.874000 9.358000 2.338500 # Oc LIG
401 30 10 0.000000 17.930000 31.973000 2.338500 # Oc LIG
402 31 10 0.000000 5.668000 6.177000 0.033500 # Oc LIG
403 32 10 0.000000 18.725000 28.792000 0.033500 # Oc LIG
404 29 4 0.000000 5.672000 10.284000 2.914500 # Cc LIG
405 30 4 0.000000 18.729000 32.898998 2.914500 # Cc LIG
406 7 2 0.000000 7.353000 13.445000 1.694500 # Ca LIG
407 8 2 0.000000 20.409000 36.060001 1.694500 # Ca LIG
408 29 3 0.000000 6.959000 12.368000 2.634500 # Cb LIG
409 30 3 0.000000 20.016001 34.983002 2.634500 # Cb LIG
410 27 4 0.000000 7.384000 12.331000 24.752460 # Cc LIG
411 28 4 0.000000 20.441000 34.945999 24.752460 # Cc LIG
412 29 5 0.000000 6.125000 11.357000 2.139500 # Cd LIG
413 30 5 0.000000 19.181000 33.972000 2.139500 # Cd LIG
414 29 6 0.000000 5.809000 11.409000 1.099500 # H LIG
415 30 6 0.000000 18.865999 34.023998 1.099500 # H LIG
416 7 9 0.000000 6.908000 13.475000 0.504500 # Ob LIG
417 8 9 0.000000 19.965000 36.090000 0.504500 # Ob LIG
418 7 8 0.000000 8.175000 14.346000 2.121500 # Oa LIG
419 8 8 0.000000 21.232000 36.960999 2.121500 # Oa LIG
420 3 8 0.000000 8.336000 15.900000 25.177460 # Oa LIG
421 4 8 0.000000 21.393000 38.514999 25.177460 # Oa LIG
422 5 8 0.000000 9.602000 14.984000 27.483459 # Oa LIG
423 6 8 0.000000 22.659000 37.598999 27.483459 # Oa LIG
424 32 10 0.000000 7.389000 16.438000 27.633459 # Oc LIG
425 32 10 0.000000 20.445999 39.053001 27.633459 # Oc LIG
426 13 8 0.000000 9.602000 30.059999 25.177460 # Oa LIG
427 14 8 0.000000 22.659000 7.445000 25.177460 # Oa LIG
428 11 8 0.000000 8.336000 30.976999 2.121500 # Oa LIG
429 12 8 0.000000 21.393000 8.362000 2.121500 # Oa LIG
430 25 8 0.000000 4.721000 21.791000 0.183500 # Oa LIG
431 32 8 0.000000 17.777000 44.405998 0.183500 # Oa LIG
432 32 10 0.000000 5.668000 21.254000 25.394459 # Oc LIG
433 32 10 0.000000 18.725000 43.868999 25.394459 # Oc LIG
434 32 8 0.000000 8.336000 0.824000 27.483459 # Oa LIG
435 18 8 0.000000 21.393000 23.438999 27.483459 # Oa LIG
436 32 10 0.000000 7.389000 1.361000 2.271500 # Oc LIG
437 32 10 0.000000 20.445999 23.976000 2.271500 # Oc LIG
438 32 10 0.000000 4.874000 39.512001 25.394459 # Oc LIG
439 32 10 0.000000 17.930000 16.896999 25.394459 # Oc LIG
440 21 2 0.000000 5.704000 39.324001 0.610500 # Ca LIG
441 22 2 0.000000 18.761000 16.709000 0.610500 # Ca LIG
442 32 3 0.000000 6.098000 40.401001 27.338459 # Cb LIG
443 32 3 0.000000 19.155001 17.785999 27.338459 # Cb LIG
444 32 4 0.000000 5.672000 40.438000 25.970459 # Cc LIG
445 32 4 0.000000 18.729000 17.823000 25.970459 # Cc LIG
446 32 5 0.000000 6.932000 41.410999 0.166500 # Cd LIG
447 32 5 0.000000 19.989000 18.796000 0.166500 # Cd LIG
448 32 6 0.000000 7.248000 41.359001 1.205500 # H LIG
449 32 6 0.000000 20.305000 18.743999 1.205500 # H LIG
450 21 9 0.000000 6.149000 39.292999 1.800500 # Ob LIG
451 22 9 0.000000 19.205999 16.677999 1.800500 # Ob LIG
452 21 8 0.000000 4.882000 38.423000 0.183500 # Oa LIG
453 22 8 0.000000 17.938000 15.808000 0.183500 # Oa LIG
454 32 3 0.000000 6.959000 42.521000 25.690460 # Cb LIG
455 32 3 0.000000 20.016001 19.906000 25.690460 # Cb LIG
456 32 4 0.000000 7.384000 42.484001 27.057461 # Cc LIG
457 32 4 0.000000 20.441000 19.868999 27.057461 # Cc LIG
458 32 5 0.000000 6.125000 41.509998 25.194460 # Cd LIG
459 32 5 0.000000 19.181000 18.895000 25.194460 # Cd LIG
460 32 8 0.000000 8.175000 44.499001 25.177460 # Oa LIG
461 8 8 0.000000 21.232000 21.884001 25.177460 # Oa LIG
462 32 10 0.000000 8.183000 43.410000 27.633459 # Oc LIG
463 32 10 0.000000 21.240000 20.795000 27.633459 # Oc LIG
464 32 10 0.000000 5.668000 36.330002 2.338500 # Oc LIG
465 32 10 0.000000 18.725000 13.715000 2.338500 # Oc LIG
466 32 2 0.000000 7.353000 43.598000 24.750460 # Ca LIG
467 8 2 0.000000 20.409000 20.983000 24.750460 # Ca LIG
468 33 9 0.000000 6.908000 43.627998 2.809500 # Ob LIG
469 34 9 0.000000 19.965000 21.013000 2.809500 # Ob LIG
470 15 8 0.000000 9.602000 45.137001 2.121500 # Oa LIG
471 16 8 0.000000 22.659000 22.521999 2.121500 # Oa LIG
472 19 8 0.000000 4.721000 36.868000 25.544460 # Oa LIG
473 20 8 0.000000 17.778000 14.253000 25.544460 # Oa LIG
474 9 8 0.000000 3.455000 37.785000 2.488500 # Oa LIG
475 10 8 0.000000 16.511000 15.170000 2.488500 # Oa LIG
476 32 10 0.000000 2.515000 22.156000 2.338500 # Oc LIG
477 32 10 0.000000 15.572000 44.771000 2.338500 # Oc LIG
478 32 4 0.000000 1.314000 22.385000 2.914500 # Cc LIG
479 32 4 0.000000 14.371000 45.000000 2.914500 # Cc LIG
480 15 2 0.000000 10.794000 44.875000 1.694500 # Ca LIG
481 16 2 0.000000 23.851000 22.260000 1.694500 # Ca LIG
482 32 3 0.000000 11.924000 45.073002 2.634500 # Cb LIG
483 16 3 0.000000 24.980000 22.458000 2.634500 # Cb LIG
484 32 5 0.000000 0.159000 22.240999 2.139500 # Cd LIG
485 32 5 0.000000 13.216000 44.855999 2.139500 # Cd LIG
486 32 6 0.000000 0.271000 21.941000 1.099500 # H LIG
487 32 6 0.000000 13.328000 44.556000 1.099500 # H LIG
488 15 9 0.000000 10.990000 44.474998 0.504500 # Ob LIG
489 16 9 0.000000 24.047001 21.860001 0.504500 # Ob LIG
490 32 4 0.000000 6.070000 35.174999 2.914500 # Cc LIG
491 32 4 0.000000 19.127001 12.560000 2.914500 # Cc LIG
492 11 2 0.000000 7.967000 32.139999 1.694500 # Ca LIG
493 12 2 0.000000 21.024000 9.525000 1.694500 # Ca LIG
494 32 3 0.000000 7.231000 33.020000 2.634500 # Cb LIG
495 32 3 0.000000 20.288000 10.405000 2.634500 # Cb LIG
496 32 5 0.000000 6.773000 34.248001 2.139500 # Cd LIG
497 32 5 0.000000 19.830000 11.633000 2.139500 # Cd LIG
498 32 6 0.000000 6.977000 34.494999 1.099500 # H LIG
499 32 6 0.000000 20.033001 11.880000 1.099500 # H LIG
500 11 9 0.000000 8.216000 32.509998 0.504500 # Ob LIG
501 12 9 0.000000 21.273001 9.895000 0.504500 # Ob LIG
502 32 10 0.000000 10.541000 30.612000 27.633459 # Oc LIG
503 32 10 0.000000 23.598000 7.997000 27.633459 # Oc LIG
504 19 2 0.000000 5.090000 35.705002 25.972460 # Ca LIG
505 20 2 0.000000 18.146000 13.090000 25.972460 # Ca LIG
506 32 3 0.000000 5.826000 34.825001 25.032459 # Cb LIG
507 32 3 0.000000 18.882000 12.210000 25.032459 # Cb LIG
508 32 5 0.000000 6.284000 33.597000 25.527460 # Cd LIG
509 32 5 0.000000 19.341000 10.982000 25.527460 # Cd LIG
510 32 6 0.000000 6.080000 33.349998 26.567459 # H LIG
511 32 6 0.000000 19.136999 10.735000 26.567459 # H LIG
512 19 9 0.000000 4.841000 35.334999 27.162460 # Ob LIG
513 20 9 0.000000 17.898001 12.720000 27.162460 # Ob LIG
514 32 10 0.000000 2.515000 37.233002 0.033500 # Oc LIG
515 32 10 0.000000 15.572000 14.618000 0.033500 # Oc LIG
516 35 9 0.000000 2.067000 38.446999 24.856461 # Ob LIG
517 36 9 0.000000 15.124000 15.832000 24.856461 # Ob LIG
518 9 2 0.000000 2.263000 38.046001 2.916500 # Ca LIG
519 10 2 0.000000 15.320000 15.431000 2.916500 # Ca LIG
520 32 3 0.000000 1.133000 37.848999 1.976500 # Cb LIG
521 32 3 0.000000 14.190000 15.234000 1.976500 # Cb LIG
522 32 4 0.000000 1.314000 37.462002 0.608500 # Cc LIG
523 32 4 0.000000 14.371000 14.847000 0.608500 # Cc LIG
524 32 5 0.000000 12.898000 15.451000 2.471500 # Cd LIG
525 32 5 0.000000 25.954000 38.066002 2.471500 # Cd LIG
526 37 6 0.000000 12.785000 15.751000 24.261459 # H LIG
527 38 6 0.000000 25.841999 38.366001 24.261459 # H LIG