LAMMPS data file. CGCMM style. atom_style full generated by VMD/TopoTools v1.5 on Tue May 02 12:05:47 PDT 2017
 2942 atoms
 0 bonds
 0 angles
 0 dihedrals
 0 impropers
 10 atom types
 0 bond types
 0 angle types
 0 dihedral types
 0 improper types
 0.451838 52.642840  xlo xhi
 0.325101 45.523500  ylo yhi
 -0.000120 27.527121  zlo zhi

# Pair Coeffs
#
# 1  CH4
# 2  Ca
# 3  Cb
# 4  Cc
# 5  Cd
# 6  H
# 7  Oa
# 8  Ob
# 9  Oc
# 10  Zn

 Masses

 1 16.040001 # CH4
 2 12.011000 # Ca
 3 12.011000 # Cb
 4 12.011000 # Cc
 5 12.011000 # Cd
 6 1.008000 # H
 7 15.999000 # Oa
 8 15.999000 # Ob
 9 15.999000 # Oc
 10 65.379997 # Zn

 Atoms

1 1 1 0.000000 52.190678 45.197601 13.920000 # CH4 
2 2 1 0.000000 52.190678 45.197601 14.233001 # CH4 
3 3 1 0.000000 52.190678 45.197601 14.545000 # CH4 
4 4 1 0.000000 52.190678 45.197601 14.858001 # CH4 
5 5 1 0.000000 52.190678 45.197601 15.171000 # CH4 
6 6 1 0.000000 52.190678 45.197601 15.484000 # CH4 
7 7 1 0.000000 52.190678 45.197601 15.797001 # CH4 
8 8 1 0.000000 52.190678 45.197601 16.109001 # CH4 
9 9 1 0.000000 52.190678 45.197601 16.422001 # CH4 
10 10 1 0.000000 52.190678 45.197601 16.735001 # CH4 
11 11 1 0.000000 52.190678 45.197601 17.048000 # CH4 
12 12 1 0.000000 52.190678 45.197601 17.361000 # CH4 
13 13 1 0.000000 52.190678 45.197601 17.673000 # CH4 
14 14 1 0.000000 52.190678 45.197601 17.986000 # CH4 
15 15 1 0.000000 52.190678 45.197601 18.299000 # CH4 
16 16 1 0.000000 52.190678 45.197601 18.612000 # CH4 
17 17 1 0.000000 52.190678 45.197601 18.924999 # CH4 
18 18 1 0.000000 52.190678 45.197601 19.238001 # CH4 
19 19 1 0.000000 52.190678 45.197601 19.549999 # CH4 
20 20 1 0.000000 52.190678 45.197601 19.863001 # CH4 
21 21 1 0.000000 52.190678 45.197601 20.176001 # CH4 
22 22 1 0.000000 52.190678 45.197601 20.489000 # CH4 
23 23 1 0.000000 52.190678 45.197601 20.802000 # CH4 
24 24 1 0.000000 52.190678 45.197601 21.114000 # CH4 
25 25 1 0.000000 52.190678 45.197601 21.427000 # CH4 
26 26 1 0.000000 52.190678 45.197601 21.740000 # CH4 
27 27 1 0.000000 52.190678 45.197601 22.053001 # CH4 
28 28 1 0.000000 52.190678 45.197601 22.366001 # CH4 
29 29 1 0.000000 52.190678 45.197601 22.678001 # CH4 
30 30 1 0.000000 52.190678 45.197601 22.991001 # CH4 
31 31 1 0.000000 52.190678 45.197601 23.304001 # CH4 
32 32 1 0.000000 52.190678 45.197601 23.617001 # CH4 
33 33 1 0.000000 52.190678 45.197601 23.930000 # CH4 
34 34 1 0.000000 52.190678 45.197601 24.242001 # CH4 
35 35 1 0.000000 52.190678 45.197601 24.555000 # CH4 
36 36 1 0.000000 52.190678 45.197601 24.868000 # CH4 
37 37 1 0.000000 52.190678 45.197601 25.181000 # CH4 
38 38 1 0.000000 52.190678 45.197601 25.493999 # CH4 
39 39 1 0.000000 52.190678 45.197601 25.807001 # CH4 
40 40 1 0.000000 52.190678 45.197601 26.118999 # CH4 
41 41 1 0.000000 52.190678 45.197601 26.432001 # CH4 
42 42 1 0.000000 52.190678 45.197601 26.745001 # CH4 
43 43 1 0.000000 52.190678 45.197601 27.058001 # CH4 
44 44 1 0.000000 52.190678 45.197601 27.371000 # CH4 
45 45 1 0.000000 52.190678 45.197601 0.156000 # CH4 
46 46 1 0.000000 52.190678 45.197601 0.469000 # CH4 
47 47 1 0.000000 52.190678 45.197601 0.782000 # CH4 
48 48 1 0.000000 52.190678 45.197601 1.095000 # CH4 
49 49 1 0.000000 52.190678 45.197601 1.408000 # CH4 
50 50 1 0.000000 52.190678 45.197601 1.720000 # CH4 
51 51 1 0.000000 52.190678 45.197601 2.033000 # CH4 
52 52 1 0.000000 52.190678 45.197601 2.346000 # CH4 
53 53 1 0.000000 52.190678 45.197601 2.659000 # CH4 
54 54 1 0.000000 52.190678 45.197601 2.972000 # CH4 
55 55 1 0.000000 52.190678 45.197601 3.285000 # CH4 
56 56 1 0.000000 52.190678 45.197601 3.597000 # CH4 
57 57 1 0.000000 52.190678 45.197601 3.910000 # CH4 
58 58 1 0.000000 52.190678 45.197601 4.223000 # CH4 
59 59 1 0.000000 52.190678 45.197601 4.536000 # CH4 
60 60 1 0.000000 52.190678 45.197601 4.849000 # CH4 
61 61 1 0.000000 52.190678 45.197601 5.161000 # CH4 
62 62 1 0.000000 52.190678 45.197601 5.474000 # CH4 
63 63 1 0.000000 52.190678 45.197601 5.787000 # CH4 
64 64 1 0.000000 52.190678 45.197601 6.100000 # CH4 
65 65 1 0.000000 52.190678 45.197601 6.413000 # CH4 
66 66 1 0.000000 52.190678 45.197601 6.725000 # CH4 
67 67 1 0.000000 52.190678 45.197601 7.038000 # CH4 
68 68 1 0.000000 52.190678 45.197601 7.351000 # CH4 
69 69 1 0.000000 52.190678 45.197601 7.664000 # CH4 
70 70 1 0.000000 52.190678 45.197601 7.977000 # CH4 
71 71 1 0.000000 52.190678 45.197601 8.289000 # CH4 
72 72 1 0.000000 52.190678 45.197601 8.602000 # CH4 
73 73 1 0.000000 52.190678 45.197601 8.915000 # CH4 
74 74 1 0.000000 52.190678 45.197601 9.228000 # CH4 
75 75 1 0.000000 52.190678 45.197601 9.541000 # CH4 
76 76 1 0.000000 52.190678 45.197601 9.854000 # CH4 
77 77 1 0.000000 52.190678 45.197601 10.166000 # CH4 
78 78 1 0.000000 52.190678 45.197601 10.479000 # CH4 
79 79 1 0.000000 52.190678 45.197601 10.792000 # CH4 
80 80 1 0.000000 52.190678 45.197601 11.105000 # CH4 
81 81 1 0.000000 52.190678 45.197601 11.418000 # CH4 
82 82 1 0.000000 52.190678 45.197601 11.730000 # CH4 
83 83 1 0.000000 52.190678 45.197601 12.043000 # CH4 
84 84 1 0.000000 52.190678 45.197601 12.356000 # CH4 
85 85 1 0.000000 52.190678 45.197601 12.669000 # CH4 
86 86 1 0.000000 52.190678 45.197601 12.982000 # CH4 
87 87 1 0.000000 52.190678 45.197601 13.294000 # CH4 
88 88 1 0.000000 52.190678 45.197601 13.607000 # CH4 
89 89 1 0.000000 52.190678 22.599600 13.920000 # CH4 
90 90 1 0.000000 52.190678 22.599600 14.233001 # CH4 
91 91 1 0.000000 52.190678 22.599600 14.545000 # CH4 
92 92 1 0.000000 52.190678 22.599600 14.858001 # CH4 
93 93 1 0.000000 52.190678 22.599600 15.171000 # CH4 
94 94 1 0.000000 52.190678 22.599600 15.484000 # CH4 
95 95 1 0.000000 52.190678 22.599600 15.797001 # CH4 
96 96 1 0.000000 52.190678 22.599600 16.109001 # CH4 
97 97 1 0.000000 52.190678 22.599600 16.422001 # CH4 
98 98 1 0.000000 52.190678 22.599600 16.735001 # CH4 
99 99 1 0.000000 52.190678 22.599600 17.048000 # CH4 
100 100 1 0.000000 52.190678 22.599600 17.361000 # CH4 
101 101 1 0.000000 52.190678 22.599600 17.673000 # CH4 
102 102 1 0.000000 52.190678 22.599600 17.986000 # CH4 
103 103 1 0.000000 52.190678 22.599600 18.299000 # CH4 
104 104 1 0.000000 52.190678 22.599600 18.612000 # CH4 
105 105 1 0.000000 52.190678 22.599600 18.924999 # CH4 
106 106 1 0.000000 52.190678 22.599600 19.238001 # CH4 
107 107 1 0.000000 52.190678 22.599600 19.549999 # CH4 
108 108 1 0.000000 52.190678 22.599600 19.863001 # CH4 
109 109 1 0.000000 52.190678 22.599600 20.176001 # CH4 
110 110 1 0.000000 52.190678 22.599600 20.489000 # CH4 
111 111 1 0.000000 52.190678 22.599600 20.802000 # CH4 
112 112 1 0.000000 52.190678 22.599600 21.114000 # CH4 
113 113 1 0.000000 52.190678 22.599600 21.427000 # CH4 
114 114 1 0.000000 52.190678 22.599600 21.740000 # CH4 
115 115 1 0.000000 52.190678 22.599600 22.053001 # CH4 
116 116 1 0.000000 52.190678 22.599600 22.366001 # CH4 
117 117 1 0.000000 52.190678 22.599600 22.678001 # CH4 
118 118 1 0.000000 52.190678 22.599600 22.991001 # CH4 
119 119 1 0.000000 52.190678 22.599600 23.304001 # CH4 
120 120 1 0.000000 52.190678 22.599600 23.617001 # CH4 
121 121 1 0.000000 52.190678 22.599600 23.930000 # CH4 
122 122 1 0.000000 52.190678 22.599600 24.242001 # CH4 
123 123 1 0.000000 52.190678 22.599600 24.555000 # CH4 
124 124 1 0.000000 52.190678 22.599600 24.868000 # CH4 
125 125 1 0.000000 52.190678 22.599600 25.181000 # CH4 
126 126 1 0.000000 52.190678 22.599600 25.493999 # CH4 
127 127 1 0.000000 52.190678 22.599600 25.807001 # CH4 
128 128 1 0.000000 52.190678 22.599600 26.118999 # CH4 
129 129 1 0.000000 52.190678 22.599600 26.432001 # CH4 
130 130 1 0.000000 52.190678 22.599600 26.745001 # CH4 
131 131 1 0.000000 52.190678 22.599600 27.058001 # CH4 
132 132 1 0.000000 52.190678 22.599600 27.371000 # CH4 
133 133 1 0.000000 52.190678 22.599600 0.156000 # CH4 
134 134 1 0.000000 52.190678 22.599600 0.469000 # CH4 
135 135 1 0.000000 52.190678 22.599600 0.782000 # CH4 
136 136 1 0.000000 52.190678 22.599600 1.095000 # CH4 
137 137 1 0.000000 52.190678 22.599600 1.408000 # CH4 
138 138 1 0.000000 52.190678 22.599600 1.720000 # CH4 
139 139 1 0.000000 52.190678 22.599600 2.033000 # CH4 
140 140 1 0.000000 52.190678 22.599600 2.346000 # CH4 
141 141 1 0.000000 52.190678 22.599600 2.659000 # CH4 
142 142 1 0.000000 52.190678 22.599600 2.972000 # CH4 
143 143 1 0.000000 52.190678 22.599600 3.285000 # CH4 
144 144 1 0.000000 52.190678 22.599600 3.597000 # CH4 
145 145 1 0.000000 52.190678 22.599600 3.910000 # CH4 
146 146 1 0.000000 52.190678 22.599600 4.223000 # CH4 
147 147 1 0.000000 52.190678 22.599600 4.536000 # CH4 
148 148 1 0.000000 52.190678 22.599600 4.849000 # CH4 
149 149 1 0.000000 52.190678 22.599600 5.161000 # CH4 
150 150 1 0.000000 52.190678 22.599600 5.474000 # CH4 
151 151 1 0.000000 52.190678 22.599600 5.787000 # CH4 
152 152 1 0.000000 52.190678 22.599600 6.100000 # CH4 
153 153 1 0.000000 52.190678 22.599600 6.413000 # CH4 
154 154 1 0.000000 52.190678 22.599600 6.725000 # CH4 
155 155 1 0.000000 52.190678 22.599600 7.038000 # CH4 
156 156 1 0.000000 52.190678 22.599600 7.351000 # CH4 
157 157 1 0.000000 52.190678 22.599600 7.664000 # CH4 
158 158 1 0.000000 52.190678 22.599600 7.977000 # CH4 
159 159 1 0.000000 52.190678 22.599600 8.289000 # CH4 
160 160 1 0.000000 52.190678 22.599600 8.602000 # CH4 
161 161 1 0.000000 52.190678 22.599600 8.915000 # CH4 
162 162 1 0.000000 52.190678 22.599600 9.228000 # CH4 
163 163 1 0.000000 52.190678 22.599600 9.541000 # CH4 
164 164 1 0.000000 52.190678 22.599600 9.854000 # CH4 
165 165 1 0.000000 52.190678 22.599600 10.166000 # CH4 
166 166 1 0.000000 52.190678 22.599600 10.479000 # CH4 
167 167 1 0.000000 52.190678 22.599600 10.792000 # CH4 
168 168 1 0.000000 52.190678 22.599600 11.105000 # CH4 
169 169 1 0.000000 52.190678 22.599600 11.418000 # CH4 
170 170 1 0.000000 52.190678 22.599600 11.730000 # CH4 
171 171 1 0.000000 52.190678 22.599600 12.043000 # CH4 
172 172 1 0.000000 52.190678 22.599600 12.356000 # CH4 
173 173 1 0.000000 52.190678 22.599600 12.669000 # CH4 
174 174 1 0.000000 52.190678 22.599600 12.982000 # CH4 
175 175 1 0.000000 52.190678 22.599600 13.294000 # CH4 
176 176 1 0.000000 52.190678 22.599600 13.607000 # CH4 
177 177 1 0.000000 26.095676 45.197601 13.920000 # CH4 
178 178 1 0.000000 26.095676 45.197601 14.233001 # CH4 
179 179 1 0.000000 26.095676 45.197601 14.545000 # CH4 
180 180 1 0.000000 26.095676 45.197601 14.858001 # CH4 
181 181 1 0.000000 26.095676 45.197601 15.171000 # CH4 
182 182 1 0.000000 26.095676 45.197601 15.484000 # CH4 
183 183 1 0.000000 26.095676 45.197601 15.797001 # CH4 
184 184 1 0.000000 26.095676 45.197601 16.109001 # CH4 
185 185 1 0.000000 26.095676 45.197601 16.422001 # CH4 
186 186 1 0.000000 26.095676 45.197601 16.735001 # CH4 
187 187 1 0.000000 26.095676 45.197601 17.048000 # CH4 
188 188 1 0.000000 26.095676 45.197601 17.361000 # CH4 
189 189 1 0.000000 26.095676 45.197601 17.673000 # CH4 
190 190 1 0.000000 26.095676 45.197601 17.986000 # CH4 
191 191 1 0.000000 26.095676 45.197601 18.299000 # CH4 
192 192 1 0.000000 26.095676 45.197601 18.612000 # CH4 
193 193 1 0.000000 26.095676 45.197601 18.924999 # CH4 
194 194 1 0.000000 26.095676 45.197601 19.238001 # CH4 
195 195 1 0.000000 26.095676 45.197601 19.549999 # CH4 
196 196 1 0.000000 26.095676 45.197601 19.863001 # CH4 
197 197 1 0.000000 26.095676 45.197601 20.176001 # CH4 
198 198 1 0.000000 26.095676 45.197601 20.489000 # CH4 
199 199 1 0.000000 26.095676 45.197601 20.802000 # CH4 
200 200 1 0.000000 26.095676 45.197601 21.114000 # CH4 
201 201 1 0.000000 26.095676 45.197601 21.427000 # CH4 
202 202 1 0.000000 26.095676 45.197601 21.740000 # CH4 
203 203 1 0.000000 26.095676 45.197601 22.053001 # CH4 
204 204 1 0.000000 26.095676 45.197601 22.366001 # CH4 
205 205 1 0.000000 26.095676 45.197601 22.678001 # CH4 
206 206 1 0.000000 26.095676 45.197601 22.991001 # CH4 
207 207 1 0.000000 26.095676 45.197601 23.304001 # CH4 
208 208 1 0.000000 26.095676 45.197601 23.617001 # CH4 
209 209 1 0.000000 26.095676 45.197601 23.930000 # CH4 
210 210 1 0.000000 26.095676 45.197601 24.242001 # CH4 
211 211 1 0.000000 26.095676 45.197601 24.555000 # CH4 
212 212 1 0.000000 26.095676 45.197601 24.868000 # CH4 
213 213 1 0.000000 26.095676 45.197601 25.181000 # CH4 
214 214 1 0.000000 26.095676 45.197601 25.493999 # CH4 
215 215 1 0.000000 26.095676 45.197601 25.807001 # CH4 
216 216 1 0.000000 26.095676 45.197601 26.118999 # CH4 
217 217 1 0.000000 26.095676 45.197601 26.432001 # CH4 
218 218 1 0.000000 26.095676 45.197601 26.745001 # CH4 
219 219 1 0.000000 26.095676 45.197601 27.058001 # CH4 
220 220 1 0.000000 26.095676 45.197601 27.371000 # CH4 
221 221 1 0.000000 26.095676 45.197601 0.156000 # CH4 
222 222 1 0.000000 26.095676 45.197601 0.469000 # CH4 
223 223 1 0.000000 26.095676 45.197601 0.782000 # CH4 
224 224 1 0.000000 26.095676 45.197601 1.095000 # CH4 
225 225 1 0.000000 26.095676 45.197601 1.408000 # CH4 
226 226 1 0.000000 26.095676 45.197601 1.720000 # CH4 
227 227 1 0.000000 26.095676 45.197601 2.033000 # CH4 
228 228 1 0.000000 26.095676 45.197601 2.346000 # CH4 
229 229 1 0.000000 26.095676 45.197601 2.659000 # CH4 
230 230 1 0.000000 26.095676 45.197601 2.972000 # CH4 
231 231 1 0.000000 26.095676 45.197601 3.285000 # CH4 
232 232 1 0.000000 26.095676 45.197601 3.597000 # CH4 
233 233 1 0.000000 26.095676 45.197601 3.910000 # CH4 
234 234 1 0.000000 26.095676 45.197601 4.223000 # CH4 
235 235 1 0.000000 26.095676 45.197601 4.536000 # CH4 
236 236 1 0.000000 26.095676 45.197601 4.849000 # CH4 
237 237 1 0.000000 26.095676 45.197601 5.161000 # CH4 
238 238 1 0.000000 26.095676 45.197601 5.474000 # CH4 
239 239 1 0.000000 26.095676 45.197601 5.787000 # CH4 
240 240 1 0.000000 26.095676 45.197601 6.100000 # CH4 
241 241 1 0.000000 26.095676 45.197601 6.413000 # CH4 
242 242 1 0.000000 26.095676 45.197601 6.725000 # CH4 
243 243 1 0.000000 26.095676 45.197601 7.038000 # CH4 
244 244 1 0.000000 26.095676 45.197601 7.351000 # CH4 
245 245 1 0.000000 26.095676 45.197601 7.664000 # CH4 
246 246 1 0.000000 26.095676 45.197601 7.977000 # CH4 
247 247 1 0.000000 26.095676 45.197601 8.289000 # CH4 
248 248 1 0.000000 26.095676 45.197601 8.602000 # CH4 
249 249 1 0.000000 26.095676 45.197601 8.915000 # CH4 
250 250 1 0.000000 26.095676 45.197601 9.228000 # CH4 
251 251 1 0.000000 26.095676 45.197601 9.541000 # CH4 
252 252 1 0.000000 26.095676 45.197601 9.854000 # CH4 
253 253 1 0.000000 26.095676 45.197601 10.166000 # CH4 
254 254 1 0.000000 26.095676 45.197601 10.479000 # CH4 
255 255 1 0.000000 26.095676 45.197601 10.792000 # CH4 
256 256 1 0.000000 26.095676 45.197601 11.105000 # CH4 
257 257 1 0.000000 26.095676 45.197601 11.418000 # CH4 
258 258 1 0.000000 26.095676 45.197601 11.730000 # CH4 
259 259 1 0.000000 26.095676 45.197601 12.043000 # CH4 
260 260 1 0.000000 26.095676 45.197601 12.356000 # CH4 
261 261 1 0.000000 26.095676 45.197601 12.669000 # CH4 
262 262 1 0.000000 26.095676 45.197601 12.982000 # CH4 
263 263 1 0.000000 26.095676 45.197601 13.294000 # CH4 
264 264 1 0.000000 26.095676 45.197601 13.607000 # CH4 
265 265 1 0.000000 26.095676 22.599600 13.920000 # CH4 
266 266 1 0.000000 26.095676 22.599600 14.233001 # CH4 
267 267 1 0.000000 26.095676 22.599600 14.545000 # CH4 
268 268 1 0.000000 26.095676 22.599600 14.858001 # CH4 
269 269 1 0.000000 26.095676 22.599600 15.171000 # CH4 
270 270 1 0.000000 26.095676 22.599600 15.484000 # CH4 
271 271 1 0.000000 26.095676 22.599600 15.797001 # CH4 
272 272 1 0.000000 26.095676 22.599600 16.109001 # CH4 
273 273 1 0.000000 26.095676 22.599600 16.422001 # CH4 
274 274 1 0.000000 26.095676 22.599600 16.735001 # CH4 
275 275 1 0.000000 26.095676 22.599600 17.048000 # CH4 
276 276 1 0.000000 26.095676 22.599600 17.361000 # CH4 
277 277 1 0.000000 26.095676 22.599600 17.673000 # CH4 
278 278 1 0.000000 26.095676 22.599600 17.986000 # CH4 
279 279 1 0.000000 26.095676 22.599600 18.299000 # CH4 
280 280 1 0.000000 26.095676 22.599600 18.612000 # CH4 
281 281 1 0.000000 26.095676 22.599600 18.924999 # CH4 
282 282 1 0.000000 26.095676 22.599600 19.238001 # CH4 
283 283 1 0.000000 26.095676 22.599600 19.549999 # CH4 
284 284 1 0.000000 26.095676 22.599600 19.863001 # CH4 
285 285 1 0.000000 26.095676 22.599600 20.176001 # CH4 
286 286 1 0.000000 26.095676 22.599600 20.489000 # CH4 
287 287 1 0.000000 26.095676 22.599600 20.802000 # CH4 
288 288 1 0.000000 26.095676 22.599600 21.114000 # CH4 
289 289 1 0.000000 26.095676 22.599600 21.427000 # CH4 
290 290 1 0.000000 26.095676 22.599600 21.740000 # CH4 
291 291 1 0.000000 26.095676 22.599600 22.053001 # CH4 
292 292 1 0.000000 26.095676 22.599600 22.366001 # CH4 
293 293 1 0.000000 26.095676 22.599600 22.678001 # CH4 
294 294 1 0.000000 26.095676 22.599600 22.991001 # CH4 
295 295 1 0.000000 26.095676 22.599600 23.304001 # CH4 
296 296 1 0.000000 26.095676 22.599600 23.617001 # CH4 
297 297 1 0.000000 26.095676 22.599600 23.930000 # CH4 
298 298 1 0.000000 26.095676 22.599600 24.242001 # CH4 
299 299 1 0.000000 26.095676 22.599600 24.555000 # CH4 
300 300 1 0.000000 26.095676 22.599600 24.868000 # CH4 
301 301 1 0.000000 26.095676 22.599600 25.181000 # CH4 
302 302 1 0.000000 26.095676 22.599600 25.493999 # CH4 
303 303 1 0.000000 26.095676 22.599600 25.807001 # CH4 
304 304 1 0.000000 26.095676 22.599600 26.118999 # CH4 
305 305 1 0.000000 26.095676 22.599600 26.432001 # CH4 
306 306 1 0.000000 26.095676 22.599600 26.745001 # CH4 
307 307 1 0.000000 26.095676 22.599600 27.058001 # CH4 
308 308 1 0.000000 26.095676 22.599600 27.371000 # CH4 
309 309 1 0.000000 26.095676 22.599600 0.156000 # CH4 
310 310 1 0.000000 26.095676 22.599600 0.469000 # CH4 
311 311 1 0.000000 26.095676 22.599600 0.782000 # CH4 
312 312 1 0.000000 26.095676 22.599600 1.095000 # CH4 
313 313 1 0.000000 26.095676 22.599600 1.408000 # CH4 
314 314 1 0.000000 26.095676 22.599600 1.720000 # CH4 
315 315 1 0.000000 26.095676 22.599600 2.033000 # CH4 
316 316 1 0.000000 26.095676 22.599600 2.346000 # CH4 
317 317 1 0.000000 26.095676 22.599600 2.659000 # CH4 
318 318 1 0.000000 26.095676 22.599600 2.972000 # CH4 
319 319 1 0.000000 26.095676 22.599600 3.285000 # CH4 
320 320 1 0.000000 26.095676 22.599600 3.597000 # CH4 
321 321 1 0.000000 26.095676 22.599600 3.910000 # CH4 
322 322 1 0.000000 26.095676 22.599600 4.223000 # CH4 
323 323 1 0.000000 26.095676 22.599600 4.536000 # CH4 
324 324 1 0.000000 26.095676 22.599600 4.849000 # CH4 
325 325 1 0.000000 26.095676 22.599600 5.161000 # CH4 
326 326 1 0.000000 26.095676 22.599600 5.474000 # CH4 
327 327 1 0.000000 26.095676 22.599600 5.787000 # CH4 
328 328 1 0.000000 26.095676 22.599600 6.100000 # CH4 
329 329 1 0.000000 26.095676 22.599600 6.413000 # CH4 
330 330 1 0.000000 26.095676 22.599600 6.725000 # CH4 
331 331 1 0.000000 26.095676 22.599600 7.038000 # CH4 
332 332 1 0.000000 26.095676 22.599600 7.351000 # CH4 
333 333 1 0.000000 26.095676 22.599600 7.664000 # CH4 
334 334 1 0.000000 26.095676 22.599600 7.977000 # CH4 
335 335 1 0.000000 26.095676 22.599600 8.289000 # CH4 
336 336 1 0.000000 26.095676 22.599600 8.602000 # CH4 
337 337 1 0.000000 26.095676 22.599600 8.915000 # CH4 
338 338 1 0.000000 26.095676 22.599600 9.228000 # CH4 
339 339 1 0.000000 26.095676 22.599600 9.541000 # CH4 
340 340 1 0.000000 26.095676 22.599600 9.854000 # CH4 
341 341 1 0.000000 26.095676 22.599600 10.166000 # CH4 
342 342 1 0.000000 26.095676 22.599600 10.479000 # CH4 
343 343 1 0.000000 26.095676 22.599600 10.792000 # CH4 
344 344 1 0.000000 26.095676 22.599600 11.105000 # CH4 
345 345 1 0.000000 26.095676 22.599600 11.418000 # CH4 
346 346 1 0.000000 26.095676 22.599600 11.730000 # CH4 
347 347 1 0.000000 26.095676 22.599600 12.043000 # CH4 
348 348 1 0.000000 26.095676 22.599600 12.356000 # CH4 
349 349 1 0.000000 26.095676 22.599600 12.669000 # CH4 
350 350 1 0.000000 26.095676 22.599600 12.982000 # CH4 
351 351 10 0.000000 5.331000 7.994000 21.569241 # Zn LIG
352 351 10 0.000000 18.378000 30.594000 21.569241 # Zn LIG
353 351 10 0.000000 31.426001 7.994000 21.569241 # Zn LIG
354 351 10 0.000000 44.473999 30.594000 21.569241 # Zn LIG
355 351 2 0.000000 5.724000 9.170000 18.988241 # Ca LIG
356 351 2 0.000000 18.771999 31.768999 18.988241 # Ca LIG
357 351 2 0.000000 31.819000 9.170000 18.988241 # Ca LIG
358 351 2 0.000000 44.867001 31.768999 18.988241 # Ca LIG
359 351 3 0.000000 6.104000 10.244000 18.040241 # Cb LIG
360 351 3 0.000000 19.150999 32.842999 18.040241 # Cb LIG
361 351 3 0.000000 32.199001 10.244000 18.040241 # Cb LIG
362 351 3 0.000000 45.247002 32.842999 18.040241 # Cb LIG
363 351 5 0.000000 6.937000 11.262000 18.520241 # Cd LIG
364 351 5 0.000000 19.983999 33.861000 18.520241 # Cd LIG
365 351 5 0.000000 33.032001 11.262000 18.520241 # Cd LIG
366 351 5 0.000000 46.080002 33.861000 18.520241 # Cd LIG
367 351 6 0.000000 7.258000 11.221000 19.558241 # H LIG
368 351 6 0.000000 20.306000 33.820000 19.558241 # H LIG
369 351 6 0.000000 33.353001 11.221000 19.558241 # H LIG
370 351 6 0.000000 46.401001 33.820000 19.558241 # H LIG
371 351 8 0.000000 6.191000 9.168000 20.176241 # Ob LIG
372 351 8 0.000000 19.238001 31.767000 20.176241 # Ob LIG
373 351 8 0.000000 32.285999 9.168000 20.176241 # Ob LIG
374 351 8 0.000000 45.334000 31.767000 20.176241 # Ob LIG
375 351 7 0.000000 4.915000 8.263000 18.567242 # Oa LIG
376 351 7 0.000000 17.962999 30.862000 18.567242 # Oa LIG
377 351 7 0.000000 31.010000 8.263000 18.567242 # Oa LIG
378 351 7 0.000000 44.057999 30.862000 18.567242 # Oa LIG
379 351 9 0.000000 8.191000 13.251000 18.306240 # Oc LIG
380 351 9 0.000000 21.238001 35.849998 18.306240 # Oc LIG
381 351 9 0.000000 34.285999 13.251000 18.306240 # Oc LIG
382 351 9 0.000000 47.334000 35.849998 18.306240 # Oc LIG
383 351 10 0.000000 4.258000 6.452000 19.275242 # Zn LIG
384 351 10 0.000000 17.306000 29.052000 19.275242 # Zn LIG
385 351 10 0.000000 30.353001 6.452000 19.275242 # Zn LIG
386 351 10 0.000000 43.401001 29.052000 19.275242 # Zn LIG
387 351 10 0.000000 3.459000 8.152000 23.863241 # Zn LIG
388 351 10 0.000000 16.507000 30.750999 23.863241 # Zn LIG
389 351 10 0.000000 29.554001 8.152000 23.863241 # Zn LIG
390 351 10 0.000000 42.602001 30.750999 23.863241 # Zn LIG
391 351 10 0.000000 7.717000 14.605000 19.721241 # Zn LIG
392 351 10 0.000000 20.764999 37.203999 19.721241 # Zn LIG
393 351 10 0.000000 33.812000 14.605000 19.721241 # Zn LIG
394 351 10 0.000000 46.860001 37.203999 19.721241 # Zn LIG
395 351 7 0.000000 4.698000 6.678000 23.155241 # Oa LIG
396 351 7 0.000000 17.746000 29.277000 23.155241 # Oa LIG
397 351 7 0.000000 30.794001 6.678000 23.155241 # Oa LIG
398 351 7 0.000000 43.841000 29.277000 23.155241 # Oa LIG
399 351 7 0.000000 3.434000 7.658000 20.861240 # Oa LIG
400 351 7 0.000000 16.482000 30.257000 20.861240 # Oa LIG
401 351 7 0.000000 29.530001 7.658000 20.861240 # Oa LIG
402 351 7 0.000000 42.577000 30.257000 20.861240 # Oa LIG
403 351 9 0.000000 4.857000 9.348000 22.984241 # Oc LIG
404 351 9 0.000000 17.905001 31.947001 22.984241 # Oc LIG
405 351 9 0.000000 30.952000 9.348000 22.984241 # Oc LIG
406 351 9 0.000000 44.000000 31.947001 22.984241 # Oc LIG
407 351 9 0.000000 5.667000 6.186000 20.690241 # Oc LIG
408 351 9 0.000000 18.715000 28.785000 20.690241 # Oc LIG
409 351 9 0.000000 31.763000 6.186000 20.690241 # Oc LIG
410 351 9 0.000000 44.810001 28.785000 20.690241 # Oc LIG
411 351 4 0.000000 5.670000 10.272000 23.559240 # Cc LIG
412 351 4 0.000000 18.718000 32.870998 23.559240 # Cc LIG
413 351 4 0.000000 31.764999 10.272000 23.559240 # Cc LIG
414 351 4 0.000000 44.813000 32.870998 23.559240 # Cc LIG
415 351 2 0.000000 7.324000 13.429000 22.302240 # Ca LIG
416 351 2 0.000000 20.371000 36.028000 22.302240 # Ca LIG
417 351 2 0.000000 33.418999 13.429000 22.302240 # Ca LIG
418 351 2 0.000000 46.466999 36.028000 22.302240 # Ca LIG
419 351 3 0.000000 6.944000 12.355000 23.250240 # Cb LIG
420 351 3 0.000000 19.992001 34.953999 23.250240 # Cb LIG
421 351 3 0.000000 33.039001 12.355000 23.250240 # Cb LIG
422 351 3 0.000000 46.087002 34.953999 23.250240 # Cb LIG
423 351 4 0.000000 7.378000 12.327000 17.730240 # Cc LIG
424 351 4 0.000000 20.424999 34.925999 17.730240 # Cc LIG
425 351 4 0.000000 33.473000 12.327000 17.730240 # Cc LIG
426 351 4 0.000000 46.521000 34.925999 17.730240 # Cc LIG
427 351 5 0.000000 6.111000 11.337000 22.770241 # Cd LIG
428 351 5 0.000000 19.159000 33.936001 22.770241 # Cd LIG
429 351 5 0.000000 32.206001 11.337000 22.770241 # Cd LIG
430 351 5 0.000000 45.254002 33.936001 22.770241 # Cd LIG
431 351 6 0.000000 5.790000 11.379000 21.732241 # H LIG
432 351 6 0.000000 18.837000 33.978001 21.732241 # H LIG
433 351 6 0.000000 31.885000 11.379000 21.732241 # H LIG
434 351 6 0.000000 44.932999 33.978001 21.732241 # H LIG
435 351 8 0.000000 6.857000 13.431000 21.113241 # Ob LIG
436 351 8 0.000000 19.905001 36.029999 21.113241 # Ob LIG
437 351 8 0.000000 32.952000 13.431000 21.113241 # Ob LIG
438 351 8 0.000000 46.000000 36.029999 21.113241 # Ob LIG
439 351 7 0.000000 8.133000 14.336000 22.723240 # Oa LIG
440 351 7 0.000000 21.180000 36.936001 22.723240 # Oa LIG
441 351 7 0.000000 34.228001 14.336000 22.723240 # Oa LIG
442 351 7 0.000000 47.276001 36.936001 22.723240 # Oa LIG
443 351 10 0.000000 8.790000 16.146999 22.015240 # Zn LIG
444 351 10 0.000000 21.837000 38.745998 22.015240 # Zn LIG
445 351 10 0.000000 34.884998 16.146999 22.015240 # Zn LIG
446 351 10 0.000000 47.932999 38.745998 22.015240 # Zn LIG
447 351 10 0.000000 9.589000 14.447000 17.427240 # Zn LIG
448 351 10 0.000000 22.636000 37.046001 17.427240 # Zn LIG
449 351 10 0.000000 35.683998 14.447000 17.427240 # Zn LIG
450 351 10 0.000000 48.731998 37.046001 17.427240 # Zn LIG
451 351 7 0.000000 8.349000 15.921000 18.135241 # Oa LIG
452 351 7 0.000000 21.396999 38.520000 18.135241 # Oa LIG
453 351 7 0.000000 34.445000 15.921000 18.135241 # Oa LIG
454 351 7 0.000000 47.492001 38.520000 18.135241 # Oa LIG
455 351 7 0.000000 9.613000 14.941000 20.429241 # Oa LIG
456 351 7 0.000000 22.660999 37.540001 20.429241 # Oa LIG
457 351 7 0.000000 35.709000 14.941000 20.429241 # Oa LIG
458 351 7 0.000000 48.756001 37.540001 20.429241 # Oa LIG
459 351 9 0.000000 7.380000 16.413000 20.600241 # Oc LIG
460 351 9 0.000000 20.427999 39.013000 20.600241 # Oc LIG
461 351 9 0.000000 33.476002 16.413000 20.600241 # Oc LIG
462 351 9 0.000000 46.522999 39.013000 20.600241 # Oc LIG
463 351 10 0.000000 8.790000 31.212999 19.721241 # Zn LIG
464 351 10 0.000000 21.837000 8.614000 19.721241 # Zn LIG
465 351 10 0.000000 34.884998 31.212999 19.721241 # Zn LIG
466 351 10 0.000000 47.932999 8.614000 19.721241 # Zn LIG
467 351 10 0.000000 9.589000 29.513000 22.015240 # Zn LIG
468 351 10 0.000000 22.636000 6.914000 22.015240 # Zn LIG
469 351 10 0.000000 35.683998 29.513000 22.015240 # Zn LIG
470 351 10 0.000000 48.731998 6.914000 22.015240 # Zn LIG
471 351 7 0.000000 9.613000 30.007000 18.135241 # Oa LIG
472 351 7 0.000000 22.660999 7.408000 18.135241 # Oa LIG
473 351 7 0.000000 35.709000 30.007000 18.135241 # Oa LIG
474 351 7 0.000000 48.756001 7.408000 18.135241 # Oa LIG
475 351 7 0.000000 8.349000 30.987000 22.723240 # Oa LIG
476 351 7 0.000000 21.396999 8.388000 22.723240 # Oa LIG
477 351 7 0.000000 34.445000 30.987000 22.723240 # Oa LIG
478 351 7 0.000000 47.492001 8.388000 22.723240 # Oa LIG
479 351 7 0.000000 4.698000 21.743999 20.861240 # Oa LIG
480 351 7 0.000000 17.746000 44.342999 20.861240 # Oa LIG
481 351 7 0.000000 30.794001 21.743999 20.861240 # Oa LIG
482 351 7 0.000000 43.841000 44.342999 20.861240 # Oa LIG
483 351 9 0.000000 5.667000 21.252001 18.396240 # Oc LIG
484 351 9 0.000000 18.715000 43.851002 18.396240 # Oc LIG
485 351 9 0.000000 31.763000 21.252001 18.396240 # Oc LIG
486 351 9 0.000000 44.810001 43.851002 18.396240 # Oc LIG
487 351 10 0.000000 4.258000 21.518000 23.863241 # Zn LIG
488 351 10 0.000000 17.306000 44.118000 23.863241 # Zn LIG
489 351 10 0.000000 30.353001 21.518000 23.863241 # Zn LIG
490 351 10 0.000000 43.401001 44.118000 23.863241 # Zn LIG
491 351 10 0.000000 8.790000 1.081000 17.427240 # Zn LIG
492 351 10 0.000000 21.837000 23.680000 17.427240 # Zn LIG
493 351 10 0.000000 34.884998 1.081000 17.427240 # Zn LIG
494 351 10 0.000000 47.932999 23.680000 17.427240 # Zn LIG
495 351 7 0.000000 8.349000 0.855000 20.429241 # Oa LIG
496 351 7 0.000000 21.396999 23.454000 20.429241 # Oa LIG
497 351 7 0.000000 34.445000 0.855000 20.429241 # Oa LIG
498 351 7 0.000000 47.492001 23.454000 20.429241 # Oa LIG
499 351 9 0.000000 7.380000 1.347000 22.894241 # Oc LIG
500 351 9 0.000000 20.427999 23.947001 22.894241 # Oc LIG
501 351 9 0.000000 33.476002 1.347000 22.894241 # Oc LIG
502 351 9 0.000000 46.522999 23.947001 22.894241 # Oc LIG
503 351 9 0.000000 4.857000 39.480000 18.396240 # Oc LIG
504 351 9 0.000000 17.905001 16.881001 18.396240 # Oc LIG
505 351 9 0.000000 30.952999 39.480000 18.396240 # Oc LIG
506 351 9 0.000000 44.000000 16.881001 18.396240 # Oc LIG
507 351 10 0.000000 5.331000 38.126999 23.863241 # Zn LIG
508 351 10 0.000000 18.378000 15.527000 23.863241 # Zn LIG
509 351 10 0.000000 31.426001 38.126999 23.863241 # Zn LIG
510 351 10 0.000000 44.473999 15.527000 23.863241 # Zn LIG
511 351 2 0.000000 5.724000 39.301998 21.282242 # Ca LIG
512 351 2 0.000000 18.771999 16.702999 21.282242 # Ca LIG
513 351 2 0.000000 31.819000 39.301998 21.282242 # Ca LIG
514 351 2 0.000000 44.867001 16.702999 21.282242 # Ca LIG
515 351 3 0.000000 6.104000 40.375999 20.334240 # Cb LIG
516 351 3 0.000000 19.150999 17.777000 20.334240 # Cb LIG
517 351 3 0.000000 32.199001 40.375999 20.334240 # Cb LIG
518 351 3 0.000000 45.247002 17.777000 20.334240 # Cb LIG
519 351 4 0.000000 5.670000 40.403999 18.972240 # Cc LIG
520 351 4 0.000000 18.718000 17.805000 18.972240 # Cc LIG
521 351 4 0.000000 31.764999 40.403999 18.972240 # Cc LIG
522 351 4 0.000000 44.813000 17.805000 18.972240 # Cc LIG
523 351 5 0.000000 6.937000 41.394001 20.814240 # Cd LIG
524 351 5 0.000000 19.983999 18.795000 20.814240 # Cd LIG
525 351 5 0.000000 33.032001 41.394001 20.814240 # Cd LIG