LAMMPS data file. CGCMM style. atom_style full generated by VMD/TopoTools v1.5 on Sun Jun 11 11:09:07 PDT 2017
 1434 atoms
 60 bonds
 0 angles
 0 dihedrals
 0 impropers
 11 atom types
 1 bond types
 0 angle types
 0 dihedral types
 0 improper types
 1.889931 45.665932  xlo xhi
 -2.143077 41.616921  ylo yhi
 -0.001005 27.678995  zlo zhi

# Pair Coeffs
#
# 1  Ca
# 2  Cb
# 3  Cc
# 4  Cd
# 5  Cg
# 6  H
# 7  Mg
# 8  Oa
# 9  Ob
# 10  Oc
# 11  Og

 Masses

 1 12.011000 # Ca
 2 12.011000 # Cb
 3 12.011000 # Cc
 4 12.011000 # Cd
 5 12.011000 # Cg
 6 1.008000 # H
 7 24.305000 # Mg
 8 15.999000 # Oa
 9 15.999000 # Ob
 10 15.999000 # Oc
 11 15.999000 # Og

 Atoms

1 1 11 -0.325600 19.156219 29.126345 23.079988 # Og 
2 1 5 0.651200 19.156219 29.126345 21.919989 # Cg 
3 1 11 -0.325600 19.156219 29.126345 20.759989 # Og 
4 2 11 -0.325600 19.154388 29.155451 9.240000 # Og 
5 2 5 0.651200 19.154388 29.155451 8.080000 # Cg 
6 2 11 -0.325600 19.154388 29.155451 6.920000 # Og 
7 3 11 -0.325600 13.685219 38.599346 23.079988 # Og 
8 3 5 0.651200 13.685219 38.599346 21.919989 # Cg 
9 3 11 -0.325600 13.685219 38.599346 20.759989 # Og 
10 4 11 -0.325600 13.682388 38.628452 9.240000 # Og 
11 4 5 0.651200 13.682388 38.628452 8.080000 # Cg 
12 4 11 -0.325600 13.682388 38.628452 6.920000 # Og 
13 5 11 -0.325600 30.099833 10.179894 23.079988 # Og 
14 5 5 0.651200 30.099833 10.179894 21.919989 # Cg 
15 5 11 -0.325600 30.099833 10.179894 20.759989 # Og 
16 6 11 -0.325600 30.097002 10.209000 9.240000 # Og 
17 6 5 0.651200 30.097002 10.209000 8.080000 # Cg 
18 6 11 -0.325600 30.097002 10.209000 6.920000 # Og 
19 7 11 -0.325600 24.627832 19.652895 23.079988 # Og 
20 7 5 0.651200 24.627832 19.652895 21.919989 # Cg 
21 7 11 -0.325600 24.627832 19.652895 20.759989 # Og 
22 8 11 -0.325600 24.626001 19.681999 9.240000 # Og 
23 8 5 0.651200 24.626001 19.681999 8.080000 # Cg 
24 8 11 -0.325600 24.626001 19.681999 6.920000 # Og 
25 9 11 -0.325600 30.100220 29.126345 23.079988 # Og 
26 9 5 0.651200 30.100220 29.126345 21.919989 # Cg 
27 9 11 -0.325600 30.100220 29.126345 20.759989 # Og 
28 10 11 -0.325600 30.098387 29.155451 9.240000 # Og 
29 10 5 0.651200 30.098387 29.155451 8.080000 # Cg 
30 10 11 -0.325600 30.098387 29.155451 6.920000 # Og 
31 11 11 -0.325600 24.629219 38.599346 23.079988 # Og 
32 11 5 0.651200 24.629219 38.599346 21.919989 # Cg 
33 11 11 -0.325600 24.629219 38.599346 20.759989 # Og 
34 12 11 -0.325600 24.626387 38.628452 9.240000 # Og 
35 12 5 0.651200 24.626387 38.628452 8.080000 # Cg 
36 12 11 -0.325600 24.626387 38.628452 6.920000 # Og 
37 13 11 -0.325600 41.043835 10.179894 23.079988 # Og 
38 13 5 0.651200 41.043835 10.179894 21.919989 # Cg 
39 13 11 -0.325600 41.043835 10.179894 20.759989 # Og 
40 14 11 -0.325600 41.041000 10.209000 9.240000 # Og 
41 14 5 0.651200 41.041000 10.209000 8.080000 # Cg 
42 14 11 -0.325600 41.041000 10.209000 6.920000 # Og 
43 15 11 -0.325600 35.571835 19.652895 23.079988 # Og 
44 15 5 0.651200 35.571835 19.652895 21.919989 # Cg 
45 15 11 -0.325600 35.571835 19.652895 20.759989 # Og 
46 16 11 -0.325600 35.570000 19.681999 9.240000 # Og 
47 16 5 0.651200 35.570000 19.681999 8.080000 # Cg 
48 16 11 -0.325600 35.570000 19.681999 6.920000 # Og 
49 17 11 -0.325600 41.044220 29.126345 23.079988 # Og 
50 17 5 0.651200 41.044220 29.126345 21.919989 # Cg 
51 17 11 -0.325600 41.044220 29.126345 20.759989 # Og 
52 18 11 -0.325600 41.042389 29.155451 9.240000 # Og 
53 18 5 0.651200 41.042389 29.155451 8.080000 # Cg 
54 18 11 -0.325600 41.042389 29.155451 6.920000 # Og 
55 19 11 -0.325600 35.573219 38.599346 23.079988 # Og 
56 19 5 0.651200 35.573219 38.599346 21.919989 # Cg 
57 19 11 -0.325600 35.573219 38.599346 20.759989 # Og 
58 20 11 -0.325600 35.570389 38.628452 9.240000 # Og 
59 20 5 0.651200 35.570389 38.628452 8.080000 # Cg 
60 20 11 -0.325600 35.570389 38.628452 6.920000 # Og 
61 21 11 -0.325600 8.211832 10.179894 23.079988 # Og 
62 21 5 0.651200 8.211832 10.179894 21.919989 # Cg 
63 21 11 -0.325600 8.211832 10.179894 20.759989 # Og 
64 22 11 -0.325600 8.209000 10.209000 9.240000 # Og 
65 22 5 0.651200 8.209000 10.209000 8.080000 # Cg 
66 22 11 -0.325600 8.209000 10.209000 6.920000 # Og 
67 23 11 -0.325600 46.515835 19.652895 23.079988 # Og 
68 23 5 0.651200 46.515835 19.652895 21.919989 # Cg 
69 23 11 -0.325600 46.515835 19.652895 20.759989 # Og 
70 24 11 -0.325600 46.514000 19.681999 9.240000 # Og 
71 24 5 0.651200 46.514000 19.681999 8.080000 # Cg 
72 24 11 -0.325600 46.514000 19.681999 6.920000 # Og 
73 25 11 -0.325600 8.212217 29.126345 23.079988 # Og 
74 25 5 0.651200 8.212217 29.126345 21.919989 # Cg 
75 25 11 -0.325600 8.212217 29.126345 20.759989 # Og 
76 26 11 -0.325600 8.210386 29.155451 9.240000 # Og 
77 26 5 0.651200 8.210386 29.155451 8.080000 # Cg 
78 26 11 -0.325600 8.210386 29.155451 6.920000 # Og 
79 27 11 -0.325600 46.517220 38.599346 23.079988 # Og 
80 27 5 0.651200 46.517220 38.599346 21.919989 # Cg 
81 27 11 -0.325600 46.517220 38.599346 20.759989 # Og 
82 28 11 -0.325600 46.514389 38.628452 9.240000 # Og 
83 28 5 0.651200 46.514389 38.628452 8.080000 # Cg 
84 28 11 -0.325600 46.514389 38.628452 6.920000 # Og 
85 29 11 -0.325600 19.155832 10.179894 23.079988 # Og 
86 29 5 0.651200 19.155832 10.179894 21.919989 # Cg 
87 29 11 -0.325600 19.155832 10.179894 20.759989 # Og 
88 30 11 -0.325600 19.153000 10.209000 9.240000 # Og 
89 30 5 0.651200 19.153000 10.209000 8.080000 # Cg 
90 30 11 -0.325600 19.153000 10.209000 6.920000 # Og 
91 31 6 0.186000 23.398062 37.097843 22.712994 # H LIG
92 31 6 0.186000 28.529060 30.732845 18.235992 # H LIG
93 31 6 0.186000 28.505062 28.451845 24.192993 # H LIG
94 31 6 0.186000 27.286060 30.087845 20.400993 # H LIG
95 31 6 0.186000 10.296674 0.991393 21.867992 # H LIG
96 31 6 0.186000 30.210060 37.762844 22.837994 # H LIG
97 31 6 0.186000 31.421062 36.944843 18.100994 # H LIG
98 31 6 0.186000 21.333061 36.784843 19.557993 # H LIG
99 31 6 0.186000 23.297060 35.640846 20.527992 # H LIG
100 31 6 0.186000 42.357674 0.895393 18.805994 # H LIG
101 31 6 0.186000 32.281673 1.050393 17.348993 # H LIG
102 31 6 0.186000 34.243675 2.191393 23.295994 # H LIG
103 31 6 0.186000 39.514675 9.393394 19.663994 # H LIG
104 31 6 0.186000 34.349674 0.736393 21.112993 # H LIG
105 31 6 0.186000 39.535675 7.122394 18.690994 # H LIG
106 31 6 0.186000 41.148674 0.075392 20.986994 # H LIG
107 31 6 0.186000 21.234060 36.839844 21.959993 # H LIG
108 31 6 0.186000 38.199677 7.754394 23.422993 # H LIG
109 31 7 1.560000 26.851061 33.809845 18.408993 # Mg LIG
110 31 7 1.560000 28.410061 34.723843 23.022993 # Mg LIG
111 31 7 1.560000 26.833061 35.615845 20.716993 # Mg LIG
112 31 7 1.560000 37.779675 2.228392 23.105993 # Mg LIG
113 31 7 1.560000 37.793674 4.042393 18.494993 # Mg LIG
114 31 7 1.560000 39.353676 3.123393 20.800993 # Mg LIG
115 31 3 0.456000 27.957062 31.715845 23.336994 # Cc LIG
116 31 2 -0.314000 24.453060 36.095844 17.347994 # Cb LIG
117 31 4 -0.234000 23.337061 36.768845 23.750994 # Cd LIG
118 31 2 -0.314000 22.199060 37.042843 17.589993 # Cb LIG
119 31 4 -0.234000 28.233061 29.301846 23.563993 # Cd LIG
120 31 4 -0.234000 28.256062 30.573845 24.110992 # Cd LIG
121 31 1 0.900000 25.584061 35.841843 23.344994 # Ca LIG
122 31 3 0.456000 29.661060 36.736843 21.030994 # Cc LIG
123 31 2 -0.314000 27.621061 31.504845 21.958994 # Cb LIG
124 31 4 -0.234000 27.587061 30.197845 21.442993 # Cd LIG
125 31 2 -0.314000 27.901062 29.076845 22.209993 # Cb LIG
126 31 4 -0.234000 9.709674 0.311393 21.246994 # Cd LIG
127 31 4 -0.234000 30.488060 37.586845 21.796993 # Cd LIG
128 31 1 0.900000 27.282063 32.608845 21.033993 # Ca LIG
129 31 3 0.456000 24.463060 35.687843 18.721992 # Cc LIG
130 31 2 -0.314000 30.018061 36.539845 19.655994 # Cb LIG
131 31 4 -0.234000 31.168060 37.162846 19.138992 # Cd LIG
132 31 2 -0.314000 10.082674 0.115392 19.898994 # Cb LIG
133 31 4 -0.234000 22.216061 36.620846 18.936993 # Cd LIG
134 31 4 -0.234000 23.310061 35.971844 19.487993 # Cd LIG
135 31 1 0.900000 29.233061 35.692844 18.731995 # Ca LIG
136 31 3 0.456000 35.409676 2.154393 18.180992 # Cc LIG
137 31 2 -0.314000 40.959675 1.300393 24.167994 # Cb LIG
138 31 4 -0.234000 42.104675 0.678393 17.766994 # Cd LIG
139 31 2 -0.314000 21.022060 37.716843 23.926994 # Cb LIG
140 31 4 -0.234000 33.165676 1.216393 17.967995 # Cd LIG
141 31 4 -0.234000 34.256676 1.867393 17.416992 # Cd LIG
142 31 1 0.900000 40.176674 2.158393 18.171993 # Ca LIG
143 31 3 0.456000 38.909676 6.131393 20.491993 # Cc LIG
144 31 2 -0.314000 35.401676 1.746393 19.554993 # Cb LIG
145 31 4 -0.234000 34.286674 1.065393 20.074993 # Cd LIG
146 31 2 -0.314000 33.149673 0.795393 19.314995 # Cb LIG
147 31 4 -0.234000 39.214676 8.544393 20.281994 # Cd LIG
148 31 4 -0.234000 39.237675 7.274392 19.729994 # Cd LIG
149 31 1 0.900000 36.530674 1.999393 20.477993 # Ca LIG
150 31 3 0.456000 40.603676 1.105393 22.793993 # Cc LIG
151 31 2 -0.314000 38.556675 6.340393 21.865993 # Cb LIG
152 31 4 -0.234000 38.517673 7.647393 22.384995 # Cd LIG
153 31 2 -0.314000 38.849674 8.768394 21.626993 # Cb LIG
154 31 4 -0.234000 20.649061 37.521843 22.579994 # Cd LIG
155 31 4 -0.234000 41.427673 0.250393 22.027994 # Cd LIG
156 31 1 0.900000 38.215675 5.235394 22.788994 # Ca LIG
157 31 10 -0.903000 39.534676 1.678393 22.210993 # Oc LIG
158 31 8 -0.899000 38.339676 4.019393 22.360992 # Oa LIG
159 31 9 -0.752000 40.569675 2.373393 19.362993 # Ob LIG
160 31 10 -0.903000 38.953674 4.920393 19.907993 # Oc LIG
161 31 8 -0.899000 37.522675 2.714392 20.051994 # Oa LIG
162 31 9 -0.752000 37.831676 5.466393 23.979994 # Ob LIG
163 31 10 -0.903000 36.437675 2.796393 17.598993 # Oc LIG
164 31 8 -0.899000 39.062675 2.662392 17.744993 # Oa LIG
165 31 9 -0.752000 36.521675 1.549392 21.668993 # Ob LIG
166 31 10 -0.903000 25.493061 35.048843 19.304993 # Oc LIG
167 31 8 -0.899000 28.117062 35.192844 19.156994 # Oa LIG
168 31 9 -0.752000 25.573061 36.290844 22.153994 # Ob LIG
169 31 10 -0.903000 28.008060 32.928844 23.914993 # Oc LIG
170 31 8 -0.899000 26.579062 35.131844 23.770994 # Oa LIG
171 31 9 -0.752000 26.903061 32.376846 19.841993 # Ob LIG
172 31 10 -0.903000 28.589062 36.169846 21.611994 # Oc LIG
173 31 8 -0.899000 27.400061 33.824844 21.461994 # Oa LIG
174 31 9 -0.752000 29.626060 35.476845 17.539993 # Ob LIG
175 31 6 0.186000 23.394436 37.125042 1.953001 # H LIG
176 31 6 0.186000 28.530270 30.734938 25.155991 # H LIG
177 31 6 0.186000 28.501436 28.479042 3.433002 # H LIG
178 31 6 0.186000 27.287270 30.089937 27.320990 # H LIG
179 31 6 0.186000 10.293049 1.018591 1.108001 # H LIG
180 31 6 0.186000 30.206436 37.790043 2.078001 # H LIG
181 31 6 0.186000 31.422268 36.946938 25.020990 # H LIG
182 31 6 0.186000 21.334269 36.786938 26.477989 # H LIG
183 31 6 0.186000 23.298269 35.642937 27.447990 # H LIG
184 31 6 0.186000 42.358883 0.897485 25.725990 # H LIG
185 31 6 0.186000 32.282883 1.052485 24.268990 # H LIG
186 31 6 0.186000 34.240051 2.218591 2.536001 # H LIG
187 31 6 0.186000 39.515884 9.395486 26.583990 # H LIG
188 31 6 0.186000 34.346050 0.763591 0.353001 # H LIG
189 31 6 0.186000 39.536884 7.124486 25.610991 # H LIG
190 31 6 0.186000 41.145050 0.102591 0.227001 # H LIG
191 31 6 0.186000 21.230436 36.867043 1.200001 # H LIG
192 31 6 0.186000 38.196053 7.781591 2.663002 # H LIG
193 31 7 1.560000 26.852268 33.811935 25.328991 # Mg LIG
194 31 7 1.560000 28.406437 34.751041 2.263001 # Mg LIG
195 31 7 1.560000 26.834269 35.617935 27.636990 # Mg LIG
196 31 7 1.560000 37.776051 2.255590 2.346002 # Mg LIG
197 31 7 1.560000 37.794884 4.044485 25.414989 # Mg LIG
198 31 7 1.560000 39.350052 3.150591 0.041001 # Mg LIG
199 31 3 0.456000 27.953436 31.743042 2.577002 # Cc LIG
200 31 2 -0.314000 24.454269 36.097939 24.267990 # Cb LIG
201 31 4 -0.234000 23.333437 36.796043 2.991002 # Cd LIG
202 31 2 -0.314000 22.200268 37.044937 24.509991 # Cb LIG
203 31 4 -0.234000 28.229437 29.329042 2.804001 # Cd LIG
204 31 4 -0.234000 28.252438 30.601044 3.351001 # Cd LIG
205 31 1 0.900000 25.580437 35.869041 2.585001 # Ca LIG
206 31 3 0.456000 29.657436 36.764042 0.271001 # Cc LIG
207 31 2 -0.314000 27.617437 31.532043 1.199001 # Cb LIG
208 31 4 -0.234000 27.583437 30.225042 0.683002 # Cd LIG
209 31 2 -0.314000 27.897436 29.104042 1.450001 # Cb LIG
210 31 4 -0.234000 9.706049 0.338591 0.487001 # Cd LIG
211 31 4 -0.234000 30.484436 37.614044 1.037002 # Cd LIG
212 31 1 0.900000 27.278437 32.636044 0.274001 # Ca LIG
213 31 3 0.456000 24.464270 35.689938 25.641991 # Cc LIG
214 31 2 -0.314000 30.019268 36.541935 26.575991 # Cb LIG
215 31 4 -0.234000 31.169270 37.164936 26.058990 # Cd LIG
216 31 2 -0.314000 10.083882 0.117485 26.818991 # Cb LIG
217 31 4 -0.234000 22.217268 36.622936 25.856991 # Cd LIG
218 31 4 -0.234000 23.311268 35.973938 26.407990 # Cd LIG
219 31 1 0.900000 29.234268 35.694939 25.651991 # Ca LIG
220 31 3 0.456000 35.410881 2.156485 25.100990 # Cc LIG
221 31 2 -0.314000 40.956051 1.327591 3.408001 # Cb LIG
222 31 4 -0.234000 42.105881 0.680485 24.686991 # Cd LIG
223 31 2 -0.314000 21.018436 37.744041 3.167001 # Cb LIG
224 31 4 -0.234000 33.166882 1.218486 24.887991 # Cd LIG
225 31 4 -0.234000 34.257881 1.869486 24.336990 # Cd LIG
226 31 1 0.900000 40.177883 2.160485 25.091990 # Ca LIG
227 31 3 0.456000 38.910881 6.133486 27.411991 # Cc LIG
228 31 2 -0.314000 35.402882 1.748485 26.474991 # Cb LIG
229 31 4 -0.234000 34.287884 1.067486 26.994991 # Cd LIG
230 31 2 -0.314000 33.150883 0.797485 26.234991 # Cb LIG
231 31 4 -0.234000 39.215881 8.546485 27.201990 # Cd LIG
232 31 4 -0.234000 39.238884 7.276484 26.649990 # Cd LIG
233 31 1 0.900000 36.531883 2.001486 27.397991 # Ca LIG
234 31 3 0.456000 40.600052 1.132591 2.034001 # Cc LIG
235 31 2 -0.314000 38.553051 6.367591 1.106001 # Cb LIG
236 31 4 -0.234000 38.514050 7.674591 1.625001 # Cd LIG
237 31 2 -0.314000 38.846050 8.795591 0.867002 # Cb LIG
238 31 4 -0.234000 20.645437 37.549042 1.820002 # Cd LIG
239 31 4 -0.234000 41.424049 0.277591 1.268002 # Cd LIG
240 31 1 0.900000 38.212051 5.262591 2.029001 # Ca LIG
241 31 10 -0.903000 39.531052 1.705591 1.451001 # Oc LIG
242 31 8 -0.899000 38.336052 4.046591 1.601001 # Oa LIG
243 31 9 -0.752000 40.570881 2.375485 26.282990 # Ob LIG
244 31 10 -0.903000 38.954884 4.922485 26.827990 # Oc LIG
245 31 8 -0.899000 37.523884 2.716485 26.971991 # Oa LIG
246 31 9 -0.752000 37.828049 5.493591 3.220001 # Ob LIG
247 31 10 -0.903000 36.438881 2.798486 24.518990 # Oc LIG
248 31 8 -0.899000 39.063881 2.664485 24.664989 # Oa LIG
249 31 9 -0.752000 36.518051 1.576591 0.909001 # Ob LIG
250 31 10 -0.903000 25.494268 35.050938 26.224991 # Oc LIG
251 31 8 -0.899000 28.118269 35.194939 26.076990 # Oa LIG
252 31 9 -0.752000 25.569437 36.318043 1.394001 # Ob LIG
253 31 10 -0.903000 28.004436 32.956043 3.155001 # Oc LIG
254 31 8 -0.899000 26.575438 35.159042 3.011002 # Oa LIG
255 31 9 -0.752000 26.904268 32.378937 26.761990 # Ob LIG
256 31 10 -0.903000 28.585436 36.197044 0.852001 # Oc LIG
257 31 8 -0.899000 27.396437 33.852043 0.702002 # Oa LIG
258 31 9 -0.752000 29.627270 35.478935 24.459990 # Ob LIG
259 31 6 0.186000 23.395645 37.127136 8.872999 # H LIG
260 31 6 0.186000 28.526646 30.762136 4.395998 # H LIG
261 31 6 0.186000 28.502644 28.481136 10.352999 # H LIG
262 31 6 0.186000 27.283646 30.117136 6.560999 # H LIG
263 31 6 0.186000 10.294257 1.020684 8.027998 # H LIG
264 31 6 0.186000 30.207645 37.792137 8.997999 # H LIG
265 31 6 0.186000 31.418644 36.974136 4.260999 # H LIG
266 31 6 0.186000 21.330645 36.814137 5.717999 # H LIG
267 31 6 0.186000 23.294643 35.670135 6.687999 # H LIG
268 31 6 0.186000 42.355259 0.924685 4.965999 # H LIG
269 31 6 0.186000 32.279259 1.079684 3.508999 # H LIG
270 31 6 0.186000 34.241257 2.220684 9.455998 # H LIG
271 31 6 0.186000 39.512260 9.422685 5.823998 # H LIG
272 31 6 0.186000 34.347260 0.765684 7.272999 # H LIG
273 31 6 0.186000 39.533257 7.151685 4.850999 # H LIG
274 31 6 0.186000 41.146259 0.104684 7.146998 # H LIG
275 31 6 0.186000 21.231644 36.869137 8.119999 # H LIG
276 31 6 0.186000 38.197258 7.783685 9.582998 # H LIG
277 31 7 1.560000 26.848644 33.839134 4.568998 # Mg LIG
278 31 7 1.560000 28.407644 34.753136 9.182999 # Mg LIG
279 31 7 1.560000 26.830645 35.645134 6.876999 # Mg LIG
280 31 7 1.560000 37.777260 2.257684 9.265999 # Mg LIG
281 31 7 1.560000 37.791260 4.071684 4.654999 # Mg LIG
282 31 7 1.560000 39.351257 3.152684 6.960999 # Mg LIG
283 31 3 0.456000 27.954643 31.745136 9.496999 # Cc LIG
284 31 2 -0.314000 24.450645 36.125137 3.507999 # Cb LIG
285 31 4 -0.234000 23.334644 36.798134 9.910999 # Cd LIG
286 31 2 -0.314000 22.196644 37.072136 3.749999 # Cb LIG
287 31 4 -0.234000 28.230644 29.331135 9.723999 # Cd LIG
288 31 4 -0.234000 28.253645 30.603136 10.270998 # Cd LIG
289 31 1 0.900000 25.581644 35.871136 9.504999 # Ca LIG
290 31 3 0.456000 29.658646 36.766136 7.190999 # Cc LIG
291 31 2 -0.314000 27.618645 31.534136 8.118999 # Cb LIG
292 31 4 -0.234000 27.584644 30.227135 7.602999 # Cd LIG
293 31 2 -0.314000 27.898643 29.106136 8.369999 # Cb LIG
294 31 4 -0.234000 9.707257 0.340684 7.406999 # Cd LIG
295 31 4 -0.234000 30.485645 37.616135 7.956999 # Cd LIG
296 31 1 0.900000 27.279644 32.638138 7.193998 # Ca LIG
297 31 3 0.456000 24.460644 35.717136 4.881999 # Cc LIG
298 31 2 -0.314000 30.015644 36.569138 5.815999 # Cb LIG
299 31 4 -0.234000 31.165646 37.192135 5.298999 # Cd LIG
300 31 2 -0.314000 10.080257 0.144684 6.058999 # Cb LIG
301 31 4 -0.234000 22.213644 36.650135 5.096999 # Cd LIG
302 31 4 -0.234000 23.307644 36.001137 5.647999 # Cd LIG
303 31 1 0.900000 29.230644 35.722137 4.891999 # Ca LIG
304 31 3 0.456000 35.407257 2.183684 4.340999 # Cc LIG
305 31 2 -0.314000 40.957260 1.329684 10.327999 # Cb LIG
306 31 4 -0.234000 42.102257 0.707685 3.926999 # Cd LIG
307 31 2 -0.314000 21.019646 37.746136 10.086998 # Cb LIG
308 31 4 -0.234000 33.163258 1.245685 4.127998 # Cd LIG
309 31 4 -0.234000 34.254257 1.896685 3.576999 # Cd LIG
310 31 1 0.900000 40.174259 2.187684 4.331999 # Ca LIG
311 31 3 0.456000 38.907257 6.160685 6.651999 # Cc LIG
312 31 2 -0.314000 35.399258 1.775684 5.714999 # Cb LIG
313 31 4 -0.234000 34.284256 1.094685 6.234999 # Cd LIG
314 31 2 -0.314000 33.147259 0.824684 5.474998 # Cb LIG
315 31 4 -0.234000 39.212257 8.573684 6.441998 # Cd LIG
316 31 4 -0.234000 39.235260 7.303683 5.889998 # Cd LIG
317 31 1 0.900000 36.528259 2.028685 6.637999 # Ca LIG
318 31 3 0.456000 40.601257 1.134685 8.953999 # Cc LIG
319 31 2 -0.314000 38.554260 6.369684 8.025999 # Cb LIG
320 31 4 -0.234000 38.515259 7.676684 8.544998 # Cd LIG
321 31 2 -0.314000 38.847260 8.797685 7.786999 # Cb LIG
322 31 4 -0.234000 20.646645 37.551136 8.739999 # Cd LIG
323 31 4 -0.234000 41.425259 0.279684 8.187999 # Cd LIG
324 31 1 0.900000 38.213257 5.264685 8.948998 # Ca LIG
325 31 10 -0.903000 39.532257 1.707685 8.370998 # Oc LIG
326 31 8 -0.899000 38.337257 4.048684 8.520998 # Oa LIG
327 31 9 -0.752000 40.567257 2.402684 5.522999 # Ob LIG
328 31 10 -0.903000 38.951260 4.949684 6.067999 # Oc LIG
329 31 8 -0.899000 37.520260 2.743684 6.211999 # Oa LIG
330 31 9 -0.752000 37.829258 5.495685 10.139998 # Ob LIG
331 31 10 -0.903000 36.435257 2.825685 3.758999 # Oc LIG
332 31 8 -0.899000 39.060257 2.691684 3.904999 # Oa LIG
333 31 9 -0.752000 36.519257 1.578684 7.828999 # Ob LIG
334 31 10 -0.903000 25.490644 35.078136 5.464999 # Oc LIG
335 31 8 -0.899000 28.114643 35.222137 5.316998 # Oa LIG
336 31 9 -0.752000 25.570644 36.320137 8.313999 # Ob LIG
337 31 10 -0.903000 28.005646 32.958138 10.074999 # Oc LIG
338 31 8 -0.899000 26.576645 35.161137 9.930999 # Oa LIG
339 31 9 -0.752000 26.900644 32.406136 6.001999 # Ob LIG
340 31 10 -0.903000 28.586643 36.199135 7.771998 # Oc LIG
341 31 8 -0.899000 27.397644 33.854137 7.621999 # Oa LIG
342 31 9 -0.752000 29.623646 35.506134 3.699999 # Ob LIG
343 31 6 0.186000 23.396852 37.129227 15.792995 # H LIG
344 31 6 0.186000 28.527853 30.764229 11.315995 # H LIG
345 31 6 0.186000 28.503853 28.483229 17.272995 # H LIG
346 31 6 0.186000 27.284853 30.119228 13.480995 # H LIG
347 31 6 0.186000 10.295465 1.022777 14.947995 # H LIG
348 31 6 0.186000 30.208853 37.794228 15.917995 # H LIG
349 31 6 0.186000 31.419853 36.976227 11.180995 # H LIG
350 31 6 0.186000 21.331852 36.816227 12.637995 # H LIG
351 31 6 0.186000 23.295853 35.672230 13.607995 # H LIG
352 31 6 0.186000 42.356468 0.926777 11.885996 # H LIG
353 31 6 0.186000 32.280464 1.081777 10.428995 # H LIG
354 31 6 0.186000 34.242466 2.222776 16.375996 # H LIG
355 31 6 0.186000 39.513466 9.424777 12.743996 # H LIG
356 31 6 0.186000 34.348465 0.767776 14.192995 # H LIG
357 31 6 0.186000 39.534466 7.153777 11.770995 # H LIG
358 31 6 0.186000 41.147469 0.106776 14.066996 # H LIG
359 31 6 0.186000 21.232853 36.871227 15.039995 # H LIG
360 31 6 0.186000 38.198467 7.785777 16.502995 # H LIG
361 31 7 1.560000 26.849854 33.841228 11.488996 # Mg LIG
362 31 7 1.560000 28.408852 34.755226 16.102995 # Mg LIG
363 31 7 1.560000 26.831852 35.647228 13.796995 # Mg LIG
364 31 7 1.560000 37.778465 2.259776 16.185995 # Mg LIG
365 31 7 1.560000 37.792465 4.073776 11.574995 # Mg LIG
366 31 7 1.560000 39.352467 3.154777 13.880995 # Mg LIG
367 31 3 0.456000 27.955853 31.747229 16.416996 # Cc LIG
368 31 2 -0.314000 24.451853 36.127228 10.427996 # Cb LIG
369 31 4 -0.234000 23.335854 36.800228 16.830996 # Cd LIG
370 31 2 -0.314000 22.197853 37.074226 10.669995 # Cb LIG
371 31 4 -0.234000 28.231853 29.333229 16.643995 # Cd LIG
372 31 4 -0.234000 28.254852 30.605228 17.190994 # Cd LIG
373 31 1 0.900000 25.582851 35.873230 16.424995 # Ca LIG
374 31 3 0.456000 29.659853 36.768227 14.110995 # Cc LIG
375 31 2 -0.314000 27.619854 31.536228 15.038996 # Cb LIG
376 31 4 -0.234000 27.585854 30.229229 14.522995 # Cd LIG
377 31 2 -0.314000 27.899853 29.108229 15.289995 # Cb LIG
378 31 4 -0.234000 9.708466 0.342776 14.326996 # Cd LIG
379 31 4 -0.234000 30.486853 37.618229 14.876995 # Cd LIG
380 31 1 0.900000 27.280853 32.640228 14.113996 # Ca LIG
381 31 3 0.456000 24.461853 35.719227 11.801995 # Cc LIG
382 31 2 -0.314000 30.016853 36.571228 12.735995 # Cb LIG
383 31 4 -0.234000 31.166853 37.194229 12.218995 # Cd LIG
384 31 2 -0.314000 10.081466 0.146776 12.978995 # Cb LIG
385 31 4 -0.234000 22.214853 36.652229 12.016995 # Cd LIG
386 31 4 -0.234000 23.308853 36.003227 12.567995 # Cd LIG
387 31 1 0.900000 29.231853 35.724228 11.811996 # Ca LIG
388 31 3 0.456000 35.408466 2.185777 11.260995 # Cc LIG
389 31 2 -0.314000 40.958466 1.331777 17.247995 # Cb LIG
390 31 4 -0.234000 42.103466 0.709777 10.846995 # Cd LIG
391 31 2 -0.314000 21.020853 37.748230 17.006996 # Cb LIG
392 31 4 -0.234000 33.164467 1.247777 11.047996 # Cd LIG
393 31 4 -0.234000 34.255466 1.898777 10.496995 # Cd LIG
394 31 1 0.900000 40.175468 2.189776 11.251995 # Ca LIG
395 31 3 0.456000 38.908466 6.162777 13.571995 # Cc LIG
396 31 2 -0.314000 35.400467 1.777777 12.634995 # Cb LIG
397 31 4 -0.234000 34.285469 1.096777 13.154995 # Cd LIG
398 31 2 -0.314000 33.148468 0.826777 12.394996 # Cb LIG
399 31 4 -0.234000 39.213467 8.575776 13.361996 # Cd LIG
400 31 4 -0.234000 39.236465 7.305776 12.809996 # Cd LIG
401 31 1 0.900000 36.529465 2.030777 13.557995 # Ca LIG
402 31 3 0.456000 40.602467 1.136777 15.873995 # Cc LIG
403 31 2 -0.314000 38.555466 6.371777 14.945995 # Cb LIG
404 31 4 -0.234000 38.516468 7.678777 15.464995 # Cd LIG
405 31 2 -0.314000 38.848465 8.799777 14.706995 # Cb LIG
406 31 4 -0.234000 20.647854 37.553230 15.659996 # Cd LIG
407 31 4 -0.234000 41.426468 0.281776 15.107996 # Cd LIG
408 31 1 0.900000 38.214466 5.266777 15.868996 # Ca LIG
409 31 10 -0.903000 39.533466 1.709777 15.290995 # Oc LIG
410 31 8 -0.899000 38.338467 4.050776 15.440995 # Oa LIG
411 31 9 -0.752000 40.568466 2.404777 12.442995 # Ob LIG
412 31 10 -0.903000 38.952465 4.951777 12.987995 # Oc LIG
413 31 8 -0.899000 37.521465 2.745776 13.131995 # Oa LIG
414 31 9 -0.752000 37.830467 5.497777 17.059996 # Ob LIG
415 31 10 -0.903000 36.436466 2.827777 10.678995 # Oc LIG
416 31 8 -0.899000 39.061466 2.693776 10.824995 # Oa LIG
417 31 9 -0.752000 36.520466 1.580776 14.748995 # Ob LIG
418 31 10 -0.903000 25.491852 35.080227 12.384995 # Oc LIG
419 31 8 -0.899000 28.115852 35.224228 12.236996 # Oa LIG
420 31 9 -0.752000 25.571854 36.322227 15.233995 # Ob LIG
421 31 10 -0.903000 28.006853 32.960228 16.994995 # Oc LIG
422 31 8 -0.899000 26.577854 35.163227 16.850996 # Oa LIG
423 31 9 -0.752000 26.901852 32.408226 12.921995 # Ob LIG
424 31 10 -0.903000 28.587852 36.201229 14.691996 # Oc LIG
425 31 8 -0.899000 27.398853 33.856228 14.541996 # Oa LIG
426 31 9 -0.752000 29.624853 35.508228 10.619995 # Ob LIG
427 31 6 0.186000 34.341370 18.151117 22.712994 # H LIG
428 31 6 0.186000 39.472366 11.786119 18.235992 # H LIG
429 31 6 0.186000 39.448368 9.505118 24.192993 # H LIG
430 31 6 0.186000 38.229370 11.141118 20.400993 # H LIG
431 31 6 0.186000 43.129368 19.938116 21.867992 # H LIG
432 31 6 0.186000 41.153366 18.816118 22.837994 # H LIG
433 31 6 0.186000 42.364368 17.998117 18.100994 # H LIG
434 31 6 0.186000 32.276367 17.838118 19.557993 # H LIG
435 31 6 0.186000 34.240368 16.694117 20.527992 # H LIG
436 31 6 0.186000 31.414368 19.842117 18.805994 # H LIG
437 31 6 0.186000 21.338367 19.997118 17.348993 # H LIG
438 31 6 0.186000 23.300367 21.138117 23.295994 # H LIG
439 31 6 0.186000 28.571369 28.340117 19.663994 # H LIG
440 31 6 0.186000 23.406366 19.683117 21.112993 # H LIG
441 31 6 0.186000 28.592369 26.069117 18.690994 # H LIG
442 31 6 0.186000 30.205368 19.022116 20.986994 # H LIG
443 31 6 0.186000 32.177368 17.893118 21.959993 # H LIG
444 31 6 0.186000 27.256367 26.701117 23.422993 # H LIG
445 31 7 1.560000 37.794369 14.863118 18.408993 # Mg LIG
446 31 7 1.560000 39.353367 15.777118 23.022993 # Mg LIG
447 31 7 1.560000 37.776367 16.669117 20.716993 # Mg LIG
448 31 7 1.560000 26.836367 21.175116 23.105993 # Mg LIG
449 31 7 1.560000 26.850367 22.989117 18.494993 # Mg LIG
450 31 7 1.560000 28.410368 22.070116 20.800993 # Mg LIG
451 31 3 0.456000 38.900368 12.769118 23.336994 # Cc LIG
452 31 2 -0.314000 35.396370 17.149117 17.347994 # Cb LIG
453 31 4 -0.234000 34.280369 17.822117 23.750994 # Cd LIG
454 31 2 -0.314000 33.142368 18.096117 17.589993 # Cb LIG
455 31 4 -0.234000 39.176369 10.355118 23.563993 # Cd LIG
456 31 4 -0.234000 39.199368 11.627118 24.110992 # Cd LIG
457 31 1 0.900000 36.527367 16.895117 23.344994 # Ca LIG
458 31 3 0.456000 40.604366 17.790117 21.030994 # Cc LIG
459 31 2 -0.314000 38.564369 12.558118 21.958994 # Cb LIG
460 31 4 -0.234000 38.530369 11.251118 21.442993 # Cd LIG
461 31 2 -0.314000 38.844368 10.130118 22.209993 # Cb LIG
462 31 4 -0.234000 42.542366 19.258116 21.246994 # Cd LIG
463 31 4 -0.234000 41.431366 18.640116 21.796993 # Cd LIG
464 31 1 0.900000 38.225368 13.662118 21.033993 # Ca LIG
465 31 3 0.456000 35.406368 16.741117 18.721992 # Cc LIG
466 31 2 -0.314000 40.961369 17.593117 19.655994 # Cb LIG
467 31 4 -0.234000 42.111366 18.216116 19.138992 # Cd LIG
468 31 2 -0.314000 42.915367 19.062117 19.898994 # Cb LIG
469 31 4 -0.234000 33.159367 17.674116 18.936993 # Cd LIG
470 31 4 -0.234000 34.253368 17.025118 19.487993 # Cd LIG
471 31 1 0.900000 40.176369 16.746117 18.731995 # Ca LIG
472 31 3 0.456000 24.466368 21.101118 18.180992 # Cc LIG
473 31 2 -0.314000 30.016369 20.247118 24.167994 # Cb LIG
474 31 4 -0.234000 31.161369 19.625116 17.766994 # Cd LIG
475 31 2 -0.314000 31.965368 18.770117 23.926994 # Cb LIG
476 31 4 -0.234000 22.222368 20.163118 17.967995 # Cd LIG
477 31 4 -0.234000 23.313368 20.814117 17.416992 # Cd LIG
478 31 1 0.900000 29.233368 21.105116 18.171993 # Ca LIG
479 31 3 0.456000 27.966368 25.078117 20.491993 # Cc LIG
480 31 2 -0.314000 24.458366 20.693117 19.554993 # Cb LIG
481 31 4 -0.234000 23.343367 20.012117 20.074993 # Cd LIG
482 31 2 -0.314000 22.206367 19.742117 19.314995 # Cb LIG
483 31 4 -0.234000 28.271368 27.491117 20.281994 # Cd LIG
484 31 4 -0.234000 28.294369 26.221117 19.729994 # Cd LIG
485 31 1 0.900000 25.587366 20.946117 20.477993 # Ca LIG
486 31 3 0.456000 29.660368 20.052118 22.793993 # Cc LIG
487 31 2 -0.314000 27.613367 25.287117 21.865993 # Cb LIG
488 31 4 -0.234000 27.574368 26.594118 22.384995 # Cd LIG
489 31 2 -0.314000 27.906368 27.715117 21.626993 # Cb LIG
490 31 4 -0.234000 31.592369 18.575117 22.579994 # Cd LIG
491 31 4 -0.234000 30.484367 19.197117 22.027994 # Cd LIG
492 31 1 0.900000 27.272367 24.182117 22.788994 # Ca LIG
493 31 10 -0.903000 28.591368 20.625116 22.210993 # Oc LIG
494 31 8 -0.899000 27.396368 22.966116 22.360992 # Oa LIG
495 31 9 -0.752000 29.626369 21.320116 19.362993 # Ob LIG
496 31 10 -0.903000 28.010368 23.867117 19.907993 # Oc LIG
497 31 8 -0.899000 26.579367 21.661116 20.051994 # Oa LIG
498 31 9 -0.752000 26.888367 24.413118 23.979994 # Ob LIG
499 31 10 -0.903000 25.494368 21.743116 17.598993 # Oc LIG
500 31 8 -0.899000 28.119368 21.609118 17.744993 # Oa LIG
501 31 9 -0.752000 25.578367 20.496117 21.668993 # Ob LIG
502 31 10 -0.903000 36.436367 16.102118 19.304993 # Oc LIG
503 31 8 -0.899000 39.060368 16.246117 19.156994 # Oa LIG
504 31 9 -0.752000 36.516369 17.344118 22.153994 # Ob LIG
505 31 10 -0.903000 38.951370 13.982118 23.914993 # Oc LIG
506 31 8 -0.899000 37.522369 16.185118 23.770994 # Oa LIG
507 31 9 -0.752000 37.846367 13.430118 19.841993 # Ob LIG
508 31 10 -0.903000 39.532368 17.223116 21.611994 # Oc LIG
509 31 8 -0.899000 38.343369 14.878118 21.461994 # Oa LIG
510 31 9 -0.752000 40.569366 16.530117 17.539993 # Ob LIG
511 31 6 0.186000 34.337746 18.178316 1.953001 # H LIG
512 31 6 0.186000 39.473576 11.788211 25.155991 # H LIG
513 31 6 0.186000 39.444744 9.532316 3.433002 # H LIG
514 31 6 0.186000 38.230576 11.143210 27.320990 # H LIG
515 31 6 0.186000 43.125744 19.965317 1.108001 # H LIG
516 31 6 0.186000 41.149742 18.843315 2.078001 # H LIG
517 31 6 0.186000 42.365574 18.000210 25.020990 # H LIG
518 31 6 0.186000 32.277576 17.840208 26.477989 # H LIG
519 31 6 0.186000 34.241577 16.696209 27.447990 # H LIG
520 31 6 0.186000 31.415577 19.844210 25.725990 # H LIG
521 31 6 0.186000 21.339575 19.999208 24.268990 # H LIG
522 31 6 0.186000 23.296743 21.165316 2.536001 # H LIG
523 31 6 0.186000 28.572575 28.342211 26.583990 # H LIG