LAMMPS data file. CGCMM style. atom_style full generated by VMD/TopoTools v1.5 on Sun May 20 07:25:59 PDT 2018
 1297 atoms
 0 bonds
 0 angles
 0 dihedrals
 0 impropers
 10 atom types
 0 bond types
 0 angle types
 0 dihedral types
 0 improper types
 0.439550 26.456750  xlo xhi
 0.332838 45.395937  ylo yhi
 -0.387750 26.927729  zlo zhi

# Pair Coeffs
#
# 1  CH4
# 2  Ca
# 3  Cb
# 4  Cc
# 5  Cd
# 6  H
# 7  Ni
# 8  Oa
# 9  Ob
# 10  Oc

 Masses

 1 16.040001 # CH4
 2 12.011000 # Ca
 3 12.011000 # Cb
 4 12.011000 # Cc
 5 12.011000 # Cd
 6 1.008000 # H
 7 58.693001 # Ni
 8 15.999000 # Oa
 9 15.999000 # Ob
 10 15.999000 # Oc

 Atoms

1 1 1 0.000000 0.0 0.0 1.0 # CH4
2 2 9 0.000000 23.941000 21.823999 20.945980 # Ob LIG
3 2 9 0.000000 10.932000 44.355999 20.945980 # Ob LIG
4 2 9 0.000000 23.941000 6.803000 23.221979 # Ob LIG
5 2 9 0.000000 10.932000 29.334000 23.221979 # Ob LIG
6 2 10 0.000000 23.514999 7.995000 20.491980 # Oc LIG
7 2 10 0.000000 10.506000 30.527000 20.491980 # Oc LIG
8 2 8 0.000000 22.554001 7.442000 18.022980 # Oa LIG
9 2 8 0.000000 9.546000 29.973000 18.022980 # Oa LIG
10 2 8 0.000000 22.554001 22.462999 22.575979 # Oa LIG
11 2 8 0.000000 9.546000 44.993999 22.575979 # Oa LIG
12 2 8 0.000000 21.304001 8.301000 22.575979 # Oa LIG
13 2 8 0.000000 8.295000 30.833000 22.575979 # Oa LIG
14 2 9 0.000000 21.164000 9.821000 20.945980 # Ob LIG
15 2 9 0.000000 8.155000 32.353001 20.945980 # Ob LIG
16 2 10 0.000000 21.184000 20.701000 20.491980 # Oc LIG
17 2 10 0.000000 8.176000 43.233002 20.491980 # Oc LIG
18 2 8 0.000000 21.184999 21.809999 18.022980 # Oa LIG
19 2 8 0.000000 8.176000 44.341000 18.022980 # Oa LIG
20 2 9 0.000000 19.938000 20.927999 23.221979 # Ob LIG
21 2 9 0.000000 6.930000 43.459999 23.221979 # Ob LIG
22 2 9 0.000000 19.087999 16.624001 22.302979 # Ob LIG
23 2 9 0.000000 6.079000 39.155998 22.302979 # Ob LIG
24 2 10 0.000000 18.681999 13.676000 22.756979 # Oc LIG
25 2 10 0.000000 5.673000 36.207001 22.756979 # Oc LIG
26 2 8 0.000000 17.841000 15.743000 20.672979 # Oa LIG
27 2 8 0.000000 4.833000 38.275002 20.672979 # Oa LIG
28 2 10 0.000000 17.841999 16.851000 18.204979 # Oc LIG
29 2 10 0.000000 4.833000 39.382999 18.204979 # Oc LIG
30 2 10 0.000000 10.506000 0.485000 18.214979 # Oc LIG
31 2 10 0.000000 23.514999 23.017000 18.214979 # Oc LIG
32 2 10 0.000000 10.506000 15.506000 22.767979 # Oc LIG
33 2 10 0.000000 23.514999 38.036999 22.767979 # Oc LIG
34 2 9 0.000000 10.932000 14.313000 18.668980 # Ob LIG
35 2 9 0.000000 23.941000 36.845001 18.668980 # Ob LIG
36 2 9 0.000000 15.085000 0.708000 20.026979 # Ob LIG
37 2 9 0.000000 2.076000 23.239000 20.026979 # Ob LIG
38 2 9 0.000000 15.085000 15.729000 17.750980 # Ob LIG
39 2 9 0.000000 2.077000 38.259998 17.750980 # Ob LIG
40 2 10 0.000000 15.511000 14.536000 20.480980 # Oc LIG
41 2 10 0.000000 2.503000 37.068001 20.480980 # Oc LIG
42 2 8 0.000000 16.471001 15.090000 22.948978 # Oa LIG
43 2 8 0.000000 3.463000 37.620998 22.948978 # Oa LIG
44 2 8 0.000000 16.471001 0.069000 18.396980 # Oa LIG
45 2 8 0.000000 3.463000 22.601000 18.396980 # Oa LIG
46 2 8 0.000000 17.722000 14.230000 18.396980 # Oa LIG
47 2 8 0.000000 4.713000 36.762001 18.396980 # Oa LIG
48 2 9 0.000000 17.862000 12.710000 20.026979 # Ob LIG
49 2 9 0.000000 4.853000 35.242001 20.026979 # Ob LIG
50 2 10 0.000000 17.841000 1.831000 20.480980 # Oc LIG
51 2 10 0.000000 4.833000 24.362000 20.480980 # Oc LIG
52 2 8 0.000000 17.841000 0.722000 22.948978 # Oa LIG
53 2 8 0.000000 4.833000 23.254000 22.948978 # Oa LIG
54 2 9 0.000000 19.087000 1.603000 17.750980 # Ob LIG
55 2 9 0.000000 6.079000 24.135000 17.750980 # Ob LIG
56 2 9 0.000000 19.938000 5.907000 18.668980 # Ob LIG
57 2 9 0.000000 6.930000 28.438999 18.668980 # Ob LIG
58 2 9 0.000000 2.076000 8.218000 22.302979 # Ob LIG
59 2 9 0.000000 15.085000 30.750000 22.302979 # Ob LIG
60 2 10 0.000000 2.503000 7.026000 18.204979 # Oc LIG
61 2 10 0.000000 15.511000 29.556999 18.204979 # Oc LIG
62 2 10 0.000000 2.503000 22.047001 22.756979 # Oc LIG
63 2 10 0.000000 15.511000 44.577999 22.756979 # Oc LIG
64 2 10 0.000000 20.344000 8.856000 18.215981 # Oc LIG
65 2 10 0.000000 7.336000 31.388000 18.215981 # Oc LIG
66 2 8 0.000000 21.184999 6.789000 20.299980 # Oa LIG
67 2 8 0.000000 8.176000 29.320000 20.299980 # Oa LIG
68 2 10 0.000000 21.184000 5.680000 22.767979 # Oc LIG
69 2 10 0.000000 8.176000 28.212000 22.767979 # Oc LIG
70 2 8 0.000000 3.463000 7.579000 20.672979 # Oa LIG
71 2 8 0.000000 16.471001 30.111000 20.672979 # Oa LIG
72 2 8 0.000000 4.713000 6.720000 22.948978 # Oa LIG
73 2 8 0.000000 17.722000 29.250999 22.948978 # Oa LIG
74 2 8 0.000000 4.713000 21.740999 20.672979 # Oa LIG
75 2 8 0.000000 17.722000 44.271999 20.672979 # Oa LIG
76 2 9 0.000000 4.853000 5.200000 17.750980 # Ob LIG
77 2 9 0.000000 17.862000 27.731001 17.750980 # Ob LIG
78 2 9 0.000000 4.853000 20.221001 22.302979 # Ob LIG
79 2 9 0.000000 17.862000 42.751999 22.302979 # Ob LIG
80 2 10 0.000000 4.833000 9.341000 22.756979 # Oc LIG
81 2 10 0.000000 17.841000 31.872999 22.756979 # Oc LIG
82 2 8 0.000000 4.833000 8.232000 18.396980 # Oa LIG
83 2 8 0.000000 17.841000 30.764000 18.396980 # Oa LIG
84 2 10 0.000000 5.673000 6.165000 20.480980 # Oc LIG
85 2 10 0.000000 18.681999 28.697001 20.480980 # Oc LIG
86 2 10 0.000000 5.673000 21.186001 18.204979 # Oc LIG
87 2 10 0.000000 18.681000 43.717999 18.204979 # Oc LIG
88 2 9 0.000000 6.079000 9.114000 20.026979 # Ob LIG
89 2 9 0.000000 19.087000 31.645000 20.026979 # Ob LIG
90 2 9 0.000000 6.930000 13.418000 20.945980 # Ob LIG
91 2 9 0.000000 19.938000 35.949001 20.945980 # Ob LIG
92 2 10 0.000000 7.336000 1.345000 22.767979 # Oc LIG
93 2 10 0.000000 20.344000 23.877001 22.767979 # Oc LIG
94 2 10 0.000000 7.336000 16.365999 20.491980 # Oc LIG
95 2 10 0.000000 20.344000 38.897999 20.491980 # Oc LIG
96 2 8 0.000000 8.176000 14.299000 22.575979 # Oa LIG
97 2 8 0.000000 21.184999 36.831001 22.575979 # Oa LIG
98 2 10 0.000000 8.176000 13.190000 18.214979 # Oc LIG
99 2 10 0.000000 21.184000 35.722000 18.214979 # Oc LIG
100 2 9 0.000000 8.155000 2.311000 18.668980 # Ob LIG
101 2 9 0.000000 21.164000 24.841999 18.668980 # Ob LIG
102 2 9 0.000000 8.155000 17.332001 23.221979 # Ob LIG
103 2 9 0.000000 21.164000 39.862999 23.221979 # Ob LIG
104 2 8 0.000000 8.296000 0.791000 20.299980 # Oa LIG
105 2 8 0.000000 21.304001 23.322001 20.299980 # Oa LIG
106 2 8 0.000000 8.295000 15.812000 18.022980 # Oa LIG
107 2 8 0.000000 21.304001 38.342999 18.022980 # Oa LIG
108 2 8 0.000000 9.546000 14.952000 20.299980 # Oa LIG
109 2 8 0.000000 22.554001 37.484001 20.299980 # Oa LIG
110 2 5 0.000000 25.868000 7.878000 20.672979 # Cd LIG
111 2 5 0.000000 12.860000 30.409000 20.672979 # Cd LIG
112 2 3 0.000000 24.879999 7.373000 18.527981 # Cb LIG
113 2 3 0.000000 11.871000 29.905001 18.527981 # Cb LIG
114 2 3 0.000000 24.879999 22.393999 23.080978 # Cb LIG
115 2 3 0.000000 11.871000 44.925999 23.080978 # Cb LIG
116 2 4 0.000000 24.708000 7.749000 19.900980 # Cc LIG
117 2 4 0.000000 11.699000 30.280001 19.900980 # Cc LIG
118 2 2 0.000000 23.745001 22.209999 22.137980 # Ca LIG
119 2 2 0.000000 10.736000 44.741001 22.137980 # Ca LIG
120 2 2 0.000000 23.745001 7.188000 17.585979 # Ca LIG
121 2 2 0.000000 10.736000 29.719999 17.585979 # Ca LIG
122 2 2 0.000000 20.927999 9.459000 22.137980 # Ca LIG
123 2 2 0.000000 7.919000 31.990999 22.137980 # Ca LIG
124 2 4 0.000000 20.374001 19.791000 19.900980 # Cc LIG
125 2 4 0.000000 7.365000 42.323002 19.900980 # Cc LIG
126 2 2 0.000000 20.370001 20.905001 17.585979 # Ca LIG
127 2 2 0.000000 7.361000 43.437000 17.585979 # Ca LIG
128 2 3 0.000000 20.201000 10.350000 23.080978 # Cb LIG
129 2 3 0.000000 7.192000 32.881001 23.080978 # Cb LIG
130 2 3 0.000000 19.962999 19.830000 18.527981 # Cb LIG
131 2 3 0.000000 6.954000 42.362000 18.527981 # Cb LIG
132 2 5 0.000000 19.905001 18.722000 20.672979 # Cd LIG
133 2 5 0.000000 6.897000 41.252998 20.672979 # Cd LIG
134 2 5 0.000000 19.757000 11.578000 22.575979 # Cd LIG
135 2 5 0.000000 6.749000 34.110001 22.575979 # Cd LIG
136 2 5 0.000000 19.120001 18.830999 18.022980 # Cd LIG
137 2 5 0.000000 6.112000 41.362999 18.022980 # Cd LIG
138 2 3 0.000000 19.063000 17.723000 20.167980 # Cb LIG
139 2 3 0.000000 6.055000 40.254002 20.167980 # Cb LIG
140 2 4 0.000000 19.065001 12.519000 23.347980 # Cc LIG
141 2 4 0.000000 6.056000 35.050999 23.347980 # Cc LIG
142 2 2 0.000000 18.656000 16.646999 21.110979 # Ca LIG
143 2 2 0.000000 5.647000 39.179001 21.110979 # Ca LIG
144 2 4 0.000000 18.652000 17.761000 18.795979 # Cc LIG
145 2 4 0.000000 5.643000 40.292999 18.795979 # Cc LIG
146 2 5 0.000000 0.149000 7.143000 18.022980 # Cd LIG
147 2 5 0.000000 13.157000 29.674999 18.022980 # Cd LIG
148 2 5 0.000000 0.149000 22.164000 22.575979 # Cd LIG
149 2 5 0.000000 13.157000 44.695999 22.575979 # Cd LIG
150 2 3 0.000000 1.137000 7.648000 20.167980 # Cb LIG
151 2 3 0.000000 14.146000 30.179001 20.167980 # Cb LIG
152 2 4 0.000000 1.309000 22.292999 23.347980 # Cc LIG
153 2 4 0.000000 14.318000 44.825001 23.347980 # Cc LIG
154 2 4 0.000000 1.309000 7.272000 18.795979 # Cc LIG
155 2 4 0.000000 14.318000 29.804001 18.795979 # Cc LIG
156 2 2 0.000000 10.736000 14.699000 19.861980 # Ca LIG
157 2 2 0.000000 23.745001 37.230000 19.861980 # Ca LIG
158 2 4 0.000000 11.699000 15.259000 22.176979 # Cc LIG
159 2 4 0.000000 24.708000 37.791000 22.176979 # Cc LIG
160 2 4 0.000000 11.699000 0.238000 17.624979 # Cc LIG
161 2 4 0.000000 24.708000 22.770000 17.624979 # Cc LIG
162 2 3 0.000000 11.871000 14.884000 20.804979 # Cb LIG
163 2 3 0.000000 24.879999 37.415001 20.804979 # Cb LIG
164 2 5 0.000000 12.860000 0.367000 18.396980 # Cd LIG
165 2 5 0.000000 25.868999 22.899000 18.396980 # Cd LIG
166 2 5 0.000000 12.860000 15.388000 22.949980 # Cd LIG
167 2 5 0.000000 25.868000 37.919998 22.949980 # Cd LIG
168 2 5 0.000000 13.157000 14.654000 20.299980 # Cd LIG
169 2 5 0.000000 0.149000 37.185001 20.299980 # Cd LIG
170 2 3 0.000000 14.146000 15.158000 22.443979 # Cb LIG
171 2 3 0.000000 1.137000 37.689999 22.443979 # Cb LIG
172 2 3 0.000000 14.146000 0.137000 17.891979 # Cb LIG
173 2 3 0.000000 1.137000 22.669001 17.891979 # Cb LIG
174 2 4 0.000000 14.318000 14.783000 21.071980 # Cc LIG
175 2 4 0.000000 1.309000 37.313999 21.071980 # Cc LIG
176 2 2 0.000000 15.281000 0.322000 18.834980 # Ca LIG
177 2 2 0.000000 2.272000 22.854000 18.834980 # Ca LIG
178 2 2 0.000000 15.281000 15.343000 23.386980 # Ca LIG
179 2 2 0.000000 2.272000 37.875000 23.386980 # Ca LIG
180 2 2 0.000000 18.098000 13.072000 18.833981 # Ca LIG
181 2 2 0.000000 5.089000 35.604000 18.833981 # Ca LIG
182 2 4 0.000000 18.652000 2.740000 21.071980 # Cc LIG
183 2 4 0.000000 5.643000 25.271999 21.071980 # Cc LIG
184 2 2 0.000000 18.656000 1.626000 23.386980 # Ca LIG
185 2 2 0.000000 5.647000 24.158001 23.386980 # Ca LIG
186 2 3 0.000000 18.825001 12.182000 17.891979 # Cb LIG
187 2 3 0.000000 5.816000 34.714001 17.891979 # Cb LIG
188 2 3 0.000000 19.063000 2.701000 22.443979 # Cb LIG
189 2 3 0.000000 6.055000 25.233000 22.443979 # Cb LIG
190 2 5 0.000000 19.120001 3.810000 20.299980 # Cd LIG
191 2 5 0.000000 6.111000 26.341999 20.299980 # Cd LIG
192 2 5 0.000000 19.268999 10.953000 18.396980 # Cd LIG
193 2 5 0.000000 6.260000 33.485001 18.396980 # Cd LIG
194 2 5 0.000000 19.906000 3.700000 22.948978 # Cd LIG
195 2 5 0.000000 6.897000 26.232000 22.948978 # Cd LIG
196 2 2 0.000000 2.272000 7.833000 21.110979 # Ca LIG
197 2 2 0.000000 15.281000 30.364000 21.110979 # Ca LIG
198 2 3 0.000000 19.962000 4.809000 20.804979 # Cb LIG
199 2 3 0.000000 6.954000 27.341000 20.804979 # Cb LIG
200 2 4 0.000000 19.961000 10.013000 17.624979 # Cc LIG
201 2 4 0.000000 6.953000 32.543999 17.624979 # Cc LIG
202 2 2 0.000000 20.370001 5.884000 19.861980 # Ca LIG
203 2 2 0.000000 7.361000 28.416000 19.861980 # Ca LIG
204 2 4 0.000000 20.374001 4.770000 22.176979 # Cc LIG
205 2 4 0.000000 7.366000 27.302000 22.176979 # Cc LIG
206 2 2 0.000000 5.089000 5.562000 23.386980 # Ca LIG
207 2 2 0.000000 18.098000 28.093000 23.386980 # Ca LIG
208 2 2 0.000000 5.089000 20.583000 21.110979 # Ca LIG
209 2 2 0.000000 18.098000 43.115002 21.110979 # Ca LIG
210 2 4 0.000000 5.643000 10.251000 23.347980 # Cc LIG
211 2 4 0.000000 18.652000 32.783001 23.347980 # Cc LIG
212 2 2 0.000000 5.647000 9.137000 18.834980 # Ca LIG
213 2 2 0.000000 18.656000 31.667999 18.834980 # Ca LIG
214 2 3 0.000000 5.816000 4.671000 22.443979 # Cb LIG
215 2 3 0.000000 18.825001 27.202999 22.443979 # Cb LIG
216 2 3 0.000000 5.817000 19.693001 20.167980 # Cb LIG
217 2 3 0.000000 18.825001 42.223999 20.167980 # Cb LIG
218 2 4 0.000000 6.056000 5.008000 21.071980 # Cc LIG
219 2 4 0.000000 19.065001 27.540001 21.071980 # Cc LIG
220 2 4 0.000000 6.056000 20.028999 18.795979 # Cc LIG
221 2 4 0.000000 19.063999 42.561001 18.795979 # Cc LIG
222 2 3 0.000000 6.055000 10.212000 17.891979 # Cb LIG
223 2 3 0.000000 19.063000 32.743000 17.891979 # Cb LIG
224 2 5 0.000000 6.111000 11.321000 22.575979 # Cd LIG
225 2 5 0.000000 19.120001 33.852001 22.575979 # Cd LIG
226 2 5 0.000000 6.260000 3.443000 22.948978 # Cd LIG
227 2 5 0.000000 19.268999 25.974001 22.948978 # Cd LIG
228 2 5 0.000000 6.261000 18.464001 20.672979 # Cd LIG
229 2 5 0.000000 19.268999 40.994999 20.672979 # Cd LIG
230 2 5 0.000000 6.748000 4.068000 20.299980 # Cd LIG
231 2 5 0.000000 19.757000 26.599001 20.299980 # Cd LIG
232 2 5 0.000000 6.748000 19.089001 18.022980 # Cd LIG
233 2 5 0.000000 19.757000 41.619999 18.022980 # Cd LIG
234 2 5 0.000000 6.897000 11.211000 18.396980 # Cd LIG
235 2 5 0.000000 19.906000 33.742001 18.396980 # Cd LIG
236 2 3 0.000000 6.954000 12.320000 23.080978 # Cb LIG
237 2 3 0.000000 19.962000 34.851002 23.080978 # Cb LIG
238 2 4 0.000000 6.953000 2.502000 22.176979 # Cc LIG
239 2 4 0.000000 19.961000 25.034000 22.176979 # Cc LIG
240 2 4 0.000000 6.953000 17.523001 19.900980 # Cc LIG
241 2 4 0.000000 19.961000 40.055000 19.900980 # Cc LIG
242 2 3 0.000000 7.192000 2.839000 20.804979 # Cb LIG
243 2 3 0.000000 20.201000 25.371000 20.804979 # Cb LIG
244 2 3 0.000000 7.192000 17.860001 18.527981 # Cb LIG
245 2 3 0.000000 20.201000 40.390999 18.527981 # Cb LIG
246 2 2 0.000000 7.361000 13.395000 22.137980 # Ca LIG
247 2 2 0.000000 20.370001 35.925999 22.137980 # Ca LIG
248 2 4 0.000000 7.366000 12.281000 17.624979 # Cc LIG
249 2 4 0.000000 20.374001 34.812000 17.624979 # Cc LIG
250 2 2 0.000000 7.919000 1.949000 19.861980 # Ca LIG
251 2 2 0.000000 20.927999 24.480000 19.861980 # Ca LIG
252 2 2 0.000000 7.919000 16.969999 17.585979 # Ca LIG
253 2 2 0.000000 20.927999 39.500999 17.585979 # Ca LIG
254 2 6 0.000000 25.764999 8.173000 21.715981 # H LIG
255 2 6 0.000000 12.756000 30.704000 21.715981 # H LIG
256 2 6 0.000000 20.212999 18.664000 21.715981 # H LIG
257 2 6 0.000000 7.204000 41.195999 21.715981 # H LIG
258 2 6 0.000000 19.961000 11.816000 21.532980 # H LIG
259 2 6 0.000000 6.952000 34.347000 21.532980 # H LIG
260 2 6 0.000000 18.813000 18.889000 23.808979 # H LIG
261 2 6 0.000000 5.805000 41.419998 23.808979 # H LIG
262 2 6 0.000000 0.252000 6.849000 23.808979 # H LIG
263 2 6 0.000000 13.261000 29.379999 23.808979 # H LIG
264 2 6 0.000000 0.252000 21.870001 21.532980 # H LIG
265 2 6 0.000000 13.261000 44.401001 21.532980 # H LIG
266 2 6 0.000000 12.756000 0.662000 19.439980 # H LIG
267 2 6 0.000000 25.764999 23.194000 19.439980 # H LIG
268 2 6 0.000000 12.756000 15.683000 17.163979 # H LIG
269 2 6 0.000000 25.764999 38.215000 17.163979 # H LIG
270 2 6 0.000000 13.261000 14.359000 19.255980 # H LIG
271 2 6 0.000000 0.252000 36.890999 19.255980 # H LIG
272 2 6 0.000000 18.813000 3.868000 19.256979 # H LIG
273 2 6 0.000000 5.804000 26.399000 19.256979 # H LIG
274 2 6 0.000000 19.065001 10.716000 19.439980 # H LIG
275 2 6 0.000000 6.057000 33.248001 19.439980 # H LIG
276 2 6 0.000000 20.212999 3.643000 17.163979 # H LIG
277 2 6 0.000000 7.204000 26.174000 17.163979 # H LIG
278 2 6 0.000000 5.804000 11.378000 21.532980 # H LIG
279 2 6 0.000000 18.813000 33.910000 21.532980 # H LIG
280 2 6 0.000000 6.057000 3.205000 17.163979 # H LIG
281 2 6 0.000000 19.065001 25.737000 17.163979 # H LIG
282 2 6 0.000000 6.057000 18.226999 21.715981 # H LIG
283 2 6 0.000000 19.066000 40.757999 21.715981 # H LIG
284 2 6 0.000000 6.952000 4.305000 19.256979 # H LIG
285 2 6 0.000000 19.959999 26.837000 19.256979 # H LIG
286 2 6 0.000000 6.951000 19.326000 23.808979 # H LIG
287 2 6 0.000000 19.959999 41.856998 23.808979 # H LIG
288 2 6 0.000000 7.204000 11.153000 19.439980 # H LIG
289 2 6 0.000000 20.212999 33.685001 19.439980 # H LIG
290 2 7 0.000000 22.488001 21.886000 19.548981 # Ni LIG
291 2 7 0.000000 9.479000 44.417999 19.548981 # Ni LIG
292 2 7 0.000000 20.719000 22.156000 21.825979 # Ni LIG
293 2 7 0.000000 7.710000 44.687000 21.825979 # Ni LIG
294 2 7 0.000000 8.828000 1.021000 17.272980 # Ni LIG
295 2 7 0.000000 21.837000 23.552999 17.272980 # Ni LIG
296 2 7 0.000000 16.538000 0.645000 21.423981 # Ni LIG
297 2 7 0.000000 3.529000 23.177000 21.423981 # Ni LIG
298 2 7 0.000000 18.306999 0.376000 19.147980 # Ni LIG
299 2 7 0.000000 5.299000 22.908001 19.147980 # Ni LIG
300 2 7 0.000000 4.181000 21.510000 23.699980 # Ni LIG
301 2 7 0.000000 17.188999 44.042000 23.699980 # Ni LIG
302 2 7 0.000000 22.488001 6.865000 21.824980 # Ni LIG
303 2 7 0.000000 9.479000 29.396999 21.824980 # Ni LIG
304 2 7 0.000000 21.837000 8.532000 19.548981 # Ni LIG
305 2 7 0.000000 8.828000 31.063000 19.548981 # Ni LIG
306 2 7 0.000000 20.718000 7.135000 17.272980 # Ni LIG
307 2 7 0.000000 7.710000 29.666000 17.272980 # Ni LIG
308 2 7 0.000000 3.529000 8.156000 23.699980 # Ni LIG
309 2 7 0.000000 16.538000 30.688000 23.699980 # Ni LIG
310 2 7 0.000000 4.180000 6.489000 19.147980 # Ni LIG
311 2 7 0.000000 17.188999 29.021000 19.147980 # Ni LIG
312 2 7 0.000000 5.299000 7.886000 21.423981 # Ni LIG
313 2 7 0.000000 18.306999 30.417999 21.423981 # Ni LIG
314 2 7 0.000000 7.710000 14.645000 19.548981 # Ni LIG
315 2 7 0.000000 20.719000 37.176998 19.548981 # Ni LIG
316 2 7 0.000000 8.828000 16.042000 21.824980 # Ni LIG
317 2 7 0.000000 21.837000 38.574001 21.824980 # Ni LIG
318 2 7 0.000000 9.479000 14.375000 17.272980 # Ni LIG
319 2 7 0.000000 22.488001 36.907001 17.272980 # Ni LIG
320 2 7 0.000000 18.306999 15.397000 23.699980 # Ni LIG
321 2 7 0.000000 5.299000 37.929001 23.699980 # Ni LIG
322 2 7 0.000000 16.538000 15.666000 19.146980 # Ni LIG
323 2 7 0.000000 3.529000 38.198002 19.146980 # Ni LIG
324 2 7 0.000000 17.188999 14.000000 21.423981 # Ni LIG
325 2 7 0.000000 4.180000 36.530998 21.423981 # Ni LIG
326 2 9 0.000000 23.941000 21.823999 0.459500 # Ob LIG
327 2 9 0.000000 10.932000 44.355999 0.459500 # Ob LIG
328 2 9 0.000000 23.941000 6.803000 2.735500 # Ob LIG
329 2 9 0.000000 10.932000 29.334000 2.735500 # Ob LIG
330 2 10 0.000000 23.514999 7.995000 0.005500 # Oc LIG
331 2 10 0.000000 10.506000 30.527000 0.005500 # Oc LIG
332 2 8 0.000000 22.554001 7.442000 24.851978 # Oa LIG
333 2 8 0.000000 9.546000 29.973000 24.851978 # Oa LIG
334 2 8 0.000000 22.554001 22.462999 2.089500 # Oa LIG
335 2 8 0.000000 9.546000 44.993999 2.089500 # Oa LIG
336 2 8 0.000000 21.304001 8.301000 2.089500 # Oa LIG
337 2 8 0.000000 8.295000 30.833000 2.089500 # Oa LIG
338 2 9 0.000000 21.164000 9.821000 0.459500 # Ob LIG
339 2 9 0.000000 8.155000 32.353001 0.459500 # Ob LIG
340 2 10 0.000000 21.184000 20.701000 0.005500 # Oc LIG
341 2 10 0.000000 8.176000 43.233002 0.005500 # Oc LIG
342 2 8 0.000000 21.184999 21.809999 24.851978 # Oa LIG
343 2 8 0.000000 8.176000 44.341000 24.851978 # Oa LIG
344 2 9 0.000000 19.938000 20.927999 2.735500 # Ob LIG
345 2 9 0.000000 6.930000 43.459999 2.735500 # Ob LIG
346 2 9 0.000000 19.087999 16.624001 1.816500 # Ob LIG
347 2 9 0.000000 6.079000 39.155998 1.816500 # Ob LIG
348 2 10 0.000000 18.681999 13.676000 2.270500 # Oc LIG
349 2 10 0.000000 5.673000 36.207001 2.270500 # Oc LIG
350 2 8 0.000000 17.841000 15.743000 0.186500 # Oa LIG
351 2 8 0.000000 4.833000 38.275002 0.186500 # Oa LIG
352 2 10 0.000000 17.841999 16.851000 25.033979 # Oc LIG
353 2 10 0.000000 4.833000 39.382999 25.033979 # Oc LIG
354 2 10 0.000000 10.506000 0.485000 25.043980 # Oc LIG
355 2 10 0.000000 23.514999 23.017000 25.043980 # Oc LIG
356 2 10 0.000000 10.506000 15.506000 2.281500 # Oc LIG
357 2 10 0.000000 23.514999 38.036999 2.281500 # Oc LIG
358 2 9 0.000000 10.932000 14.313000 25.497980 # Ob LIG
359 2 9 0.000000 23.941000 36.845001 25.497980 # Ob LIG
360 2 9 0.000000 15.085000 0.708000 26.855980 # Ob LIG
361 2 9 0.000000 2.076000 23.239000 26.855980 # Ob LIG
362 2 9 0.000000 15.085000 15.729000 24.579979 # Ob LIG
363 2 9 0.000000 2.077000 38.259998 24.579979 # Ob LIG
364 2 10 0.000000 15.511000 14.536000 27.309978 # Oc LIG
365 2 10 0.000000 2.503000 37.068001 27.309978 # Oc LIG
366 2 8 0.000000 16.471001 15.090000 2.462500 # Oa LIG
367 2 8 0.000000 3.463000 37.620998 2.462500 # Oa LIG
368 2 8 0.000000 16.471001 0.069000 25.225979 # Oa LIG
369 2 8 0.000000 3.463000 22.601000 25.225979 # Oa LIG
370 2 8 0.000000 17.722000 14.230000 25.225979 # Oa LIG
371 2 8 0.000000 4.713000 36.762001 25.225979 # Oa LIG
372 2 9 0.000000 17.862000 12.710000 26.855980 # Ob LIG
373 2 9 0.000000 4.853000 35.242001 26.855980 # Ob LIG
374 2 10 0.000000 17.841000 1.831000 27.309978 # Oc LIG
375 2 10 0.000000 4.833000 24.362000 27.309978 # Oc LIG
376 2 8 0.000000 17.841000 0.722000 2.462500 # Oa LIG
377 2 8 0.000000 4.833000 23.254000 2.462500 # Oa LIG
378 2 9 0.000000 19.087000 1.603000 24.579979 # Ob LIG
379 2 9 0.000000 6.079000 24.135000 24.579979 # Ob LIG
380 2 9 0.000000 19.938000 5.907000 25.497980 # Ob LIG
381 2 9 0.000000 6.930000 28.438999 25.497980 # Ob LIG
382 2 9 0.000000 2.076000 8.218000 1.816500 # Ob LIG
383 2 9 0.000000 15.085000 30.750000 1.816500 # Ob LIG
384 2 10 0.000000 2.503000 7.026000 25.033979 # Oc LIG
385 2 10 0.000000 15.511000 29.556999 25.033979 # Oc LIG
386 2 10 0.000000 2.503000 22.047001 2.270500 # Oc LIG
387 2 10 0.000000 15.511000 44.577999 2.270500 # Oc LIG
388 2 10 0.000000 20.344000 8.856000 25.044979 # Oc LIG
389 2 10 0.000000 7.336000 31.388000 25.044979 # Oc LIG
390 2 8 0.000000 21.184999 6.789000 27.128979 # Oa LIG
391 2 8 0.000000 8.176000 29.320000 27.128979 # Oa LIG
392 2 10 0.000000 21.184000 5.680000 2.281500 # Oc LIG
393 2 10 0.000000 8.176000 28.212000 2.281500 # Oc LIG
394 2 8 0.000000 3.463000 7.579000 0.186500 # Oa LIG
395 2 8 0.000000 16.471001 30.111000 0.186500 # Oa LIG
396 2 8 0.000000 4.713000 6.720000 2.462500 # Oa LIG
397 2 8 0.000000 17.722000 29.250999 2.462500 # Oa LIG
398 2 8 0.000000 4.713000 21.740999 0.186500 # Oa LIG
399 2 8 0.000000 17.722000 44.271999 0.186500 # Oa LIG
400 2 9 0.000000 4.853000 5.200000 24.579979 # Ob LIG
401 2 9 0.000000 17.862000 27.731001 24.579979 # Ob LIG
402 2 9 0.000000 4.853000 20.221001 1.816500 # Ob LIG
403 2 9 0.000000 17.862000 42.751999 1.816500 # Ob LIG
404 2 10 0.000000 4.833000 9.341000 2.270500 # Oc LIG
405 2 10 0.000000 17.841000 31.872999 2.270500 # Oc LIG
406 2 8 0.000000 4.833000 8.232000 25.225979 # Oa LIG
407 2 8 0.000000 17.841000 30.764000 25.225979 # Oa LIG
408 2 10 0.000000 5.673000 6.165000 27.309978 # Oc LIG
409 2 10 0.000000 18.681999 28.697001 27.309978 # Oc LIG
410 2 10 0.000000 5.673000 21.186001 25.033979 # Oc LIG
411 2 10 0.000000 18.681000 43.717999 25.033979 # Oc LIG
412 2 9 0.000000 6.079000 9.114000 26.855980 # Ob LIG
413 2 9 0.000000 19.087000 31.645000 26.855980 # Ob LIG
414 2 9 0.000000 6.930000 13.418000 0.459500 # Ob LIG
415 2 9 0.000000 19.938000 35.949001 0.459500 # Ob LIG
416 2 10 0.000000 7.336000 1.345000 2.281500 # Oc LIG
417 2 10 0.000000 20.344000 23.877001 2.281500 # Oc LIG
418 2 10 0.000000 7.336000 16.365999 0.005500 # Oc LIG
419 2 10 0.000000 20.344000 38.897999 0.005500 # Oc LIG
420 2 8 0.000000 8.176000 14.299000 2.089500 # Oa LIG
421 2 8 0.000000 21.184999 36.831001 2.089500 # Oa LIG
422 2 10 0.000000 8.176000 13.190000 25.043980 # Oc LIG
423 2 10 0.000000 21.184000 35.722000 25.043980 # Oc LIG
424 2 9 0.000000 8.155000 2.311000 25.497980 # Ob LIG
425 2 9 0.000000 21.164000 24.841999 25.497980 # Ob LIG
426 2 9 0.000000 8.155000 17.332001 2.735500 # Ob LIG
427 2 9 0.000000 21.164000 39.862999 2.735500 # Ob LIG
428 2 8 0.000000 8.296000 0.791000 27.128979 # Oa LIG
429 2 8 0.000000 21.304001 23.322001 27.128979 # Oa LIG
430 2 8 0.000000 8.295000 15.812000 24.851978 # Oa LIG
431 2 8 0.000000 21.304001 38.342999 24.851978 # Oa LIG
432 2 8 0.000000 9.546000 14.952000 27.128979 # Oa LIG
433 2 8 0.000000 22.554001 37.484001 27.128979 # Oa LIG
434 2 5 0.000000 25.868000 7.878000 0.186500 # Cd LIG
435 2 5 0.000000 12.860000 30.409000 0.186500 # Cd LIG
436 2 3 0.000000 24.879999 7.373000 25.356979 # Cb LIG
437 2 3 0.000000 11.871000 29.905001 25.356979 # Cb LIG
438 2 3 0.000000 24.879999 22.393999 2.594500 # Cb LIG
439 2 3 0.000000 11.871000 44.925999 2.594500 # Cb LIG
440 2 4 0.000000 24.708000 7.749000 26.729979 # Cc LIG
441 2 4 0.000000 11.699000 30.280001 26.729979 # Cc LIG
442 2 2 0.000000 23.745001 22.209999 1.651500 # Ca LIG
443 2 2 0.000000 10.736000 44.741001 1.651500 # Ca LIG
444 2 2 0.000000 23.745001 7.188000 24.414980 # Ca LIG
445 2 2 0.000000 10.736000 29.719999 24.414980 # Ca LIG
446 2 2 0.000000 20.927999 9.459000 1.651500 # Ca LIG
447 2 2 0.000000 7.919000 31.990999 1.651500 # Ca LIG
448 2 4 0.000000 20.374001 19.791000 26.729979 # Cc LIG
449 2 4 0.000000 7.365000 42.323002 26.729979 # Cc LIG
450 2 2 0.000000 20.370001 20.905001 24.414980 # Ca LIG
451 2 2 0.000000 7.361000 43.437000 24.414980 # Ca LIG
452 2 3 0.000000 20.201000 10.350000 2.594500 # Cb LIG
453 2 3 0.000000 7.192000 32.881001 2.594500 # Cb LIG
454 2 3 0.000000 19.962999 19.830000 25.356979 # Cb LIG
455 2 3 0.000000 6.954000 42.362000 25.356979 # Cb LIG
456 2 5 0.000000 19.905001 18.722000 0.186500 # Cd LIG
457 2 5 0.000000 6.897000 41.252998 0.186500 # Cd LIG
458 2 5 0.000000 19.757000 11.578000 2.089500 # Cd LIG
459 2 5 0.000000 6.749000 34.110001 2.089500 # Cd LIG
460 2 5 0.000000 19.120001 18.830999 24.851978 # Cd LIG
461 2 5 0.000000 6.112000 41.362999 24.851978 # Cd LIG
462 2 3 0.000000 19.063000 17.723000 26.996979 # Cb LIG
463 2 3 0.000000 6.055000 40.254002 26.996979 # Cb LIG
464 2 4 0.000000 19.065001 12.519000 2.861500 # Cc LIG
465 2 4 0.000000 6.056000 35.050999 2.861500 # Cc LIG
466 2 2 0.000000 18.656000 16.646999 0.624500 # Ca LIG
467 2 2 0.000000 5.647000 39.179001 0.624500 # Ca LIG
468 2 4 0.000000 18.652000 17.761000 25.624979 # Cc LIG
469 2 4 0.000000 5.643000 40.292999 25.624979 # Cc LIG
470 2 5 0.000000 0.149000 7.143000 24.851978 # Cd LIG
471 2 5 0.000000 13.157000 29.674999 24.851978 # Cd LIG
472 2 5 0.000000 0.149000 22.164000 2.089500 # Cd LIG
473 2 5 0.000000 13.157000 44.695999 2.089500 # Cd LIG
474 2 3 0.000000 1.137000 7.648000 26.996979 # Cb LIG
475 2 3 0.000000 14.146000 30.179001 26.996979 # Cb LIG
476 2 4 0.000000 1.309000 22.292999 2.861500 # Cc LIG
477 2 4 0.000000 14.318000 44.825001 2.861500 # Cc LIG
478 2 4 0.000000 1.309000 7.272000 25.624979 # Cc LIG
479 2 4 0.000000 14.318000 29.804001 25.624979 # Cc LIG
480 2 2 0.000000 10.736000 14.699000 26.690979 # Ca LIG
481 2 2 0.000000 23.745001 37.230000 26.690979 # Ca LIG
482 2 4 0.000000 11.699000 15.259000 1.690500 # Cc LIG
483 2 4 0.000000 24.708000 37.791000 1.690500 # Cc LIG
484 2 4 0.000000 11.699000 0.238000 24.453979 # Cc LIG
485 2 4 0.000000 24.708000 22.770000 24.453979 # Cc LIG
486 2 3 0.000000 11.871000 14.884000 0.318500 # Cb LIG
487 2 3 0.000000 24.879999 37.415001 0.318500 # Cb LIG
488 2 5 0.000000 12.860000 0.367000 25.225979 # Cd LIG
489 2 5 0.000000 25.868999 22.899000 25.225979 # Cd LIG
490 2 5 0.000000 12.860000 15.388000 2.463500 # Cd LIG
491 2 5 0.000000 25.868000 37.919998 2.463500 # Cd LIG
492 2 5 0.000000 13.157000 14.654000 27.128979 # Cd LIG
493 2 5 0.000000 0.149000 37.185001 27.128979 # Cd LIG
494 2 3 0.000000 14.146000 15.158000 1.957500 # Cb LIG
495 2 3 0.000000 1.137000 37.689999 1.957500 # Cb LIG
496 2 3 0.000000 14.146000 0.137000 24.720980 # Cb LIG
497 2 3 0.000000 1.137000 22.669001 24.720980 # Cb LIG
498 2 4 0.000000 14.318000 14.783000 0.585500 # Cc LIG
499 2 4 0.000000 1.309000 37.313999 0.585500 # Cc LIG
500 2 2 0.000000 15.281000 0.322000 25.663979 # Ca LIG
501 2 2 0.000000 2.272000 22.854000 25.663979 # Ca LIG
502 2 2 0.000000 15.281000 15.343000 2.900500 # Ca LIG
503 2 2 0.000000 2.272000 37.875000 2.900500 # Ca LIG
504 2 2 0.000000 18.098000 13.072000 25.662979 # Ca LIG
505 2 2 0.000000 5.089000 35.604000 25.662979 # Ca LIG
506 2 4 0.000000 18.652000 2.740000 0.585500 # Cc LIG
507 2 4 0.000000 5.643000 25.271999 0.585500 # Cc LIG
508 2 2 0.000000 18.656000 1.626000 2.900500 # Ca LIG
509 2 2 0.000000 5.647000 24.158001 2.900500 # Ca LIG
510 2 3 0.000000 18.825001 12.182000 24.720980 # Cb LIG
511 2 3 0.000000 5.816000 34.714001 24.720980 # Cb LIG
512 2 3 0.000000 19.063000 2.701000 1.957500 # Cb LIG
513 2 3 0.000000 6.055000 25.233000 1.957500 # Cb LIG
514 2 5 0.000000 19.120001 3.810000 27.128979 # Cd LIG
515 2 5 0.000000 6.111000 26.341999 27.128979 # Cd LIG
516 2 5 0.000000 19.268999 10.953000 25.225979 # Cd LIG
517 2 5 0.000000 6.260000 33.485001 25.225979 # Cd LIG
518 2 5 0.000000 19.906000 3.700000 2.462500 # Cd LIG
519 2 5 0.000000 6.897000 26.232000 2.462500 # Cd LIG
520 2 2 0.000000 2.272000 7.833000 0.624500 # Ca LIG
521 2 2 0.000000 15.281000 30.364000 0.624500 # Ca LIG
522 2 3 0.000000 19.962000 4.809000 0.318500 # Cb LIG
523 2 3 0.000000 6.954000 27.341000 0.318500 # Cb LIG
524 2 4 0.000000 19.961000 10.013000 24.453979 # Cc LIG
525 2 4 0.000000 6.953000 32.543999 24.453979 # Cc LIG
526 2 2 0.000000 20.370001 5.884000 26.690979 # Ca LIG
527 2 2 0.000000 7.361000 28.416000 26.690979 # Ca LIG
528 2 4 0.000000 20.374001 4.770000 1.690500 # Cc LIG
529 2 4 0.000000 7.366000 27.302000 1.690500 # Cc LIG
530 2 2 0.000000 5.089000 5.562000 2.900500 # Ca LIG
531 2 2 0.000000 18.098000 28.093000 2.900500 # Ca LIG
532 2 2 0.000000 5.089000 20.583000 0.624500 # Ca LIG
533 2 2 0.000000 18.098000 43.115002 0.624500 # Ca LIG
534 2 4 0.000000 5.643000 10.251000 2.861500 # Cc LIG