LAMMPS data file. CGCMM style. atom_style full generated by VMD/TopoTools v1.5 on Sun May 20 07:26:04 PDT 2018
 1301 atoms
 0 bonds
 0 angles
 0 dihedrals
 0 impropers
 10 atom types
 0 bond types
 0 angle types
 0 dihedral types
 0 improper types
 0.439550 26.456750  xlo xhi
 0.332838 45.395937  ylo yhi
 -0.000000 27.315479  zlo zhi

# Pair Coeffs
#
# 1  CH4
# 2  Ca
# 3  Cb
# 4  Cc
# 5  Cd
# 6  H
# 7  Ni
# 8  Oa
# 9  Ob
# 10  Oc

 Masses

 1 16.040001 # CH4
 2 12.011000 # Ca
 3 12.011000 # Cb
 4 12.011000 # Cc
 5 12.011000 # Cd
 6 1.008000 # H
 7 58.693001 # Ni
 8 15.999000 # Oa
 9 15.999000 # Ob
 10 15.999000 # Oc

 Atoms

1 1 1 0.000000 0.0 0.0 1.0 # CH4
2 2 1 0.000000 0.0 0.0 2.0 # CH4
3 3 1 0.000000 0.0 0.0 3.0 # CH4
4 4 1 0.000000 0.0 0.0 4.0 # CH4
5 5 1 0.000000 0.0 0.0 5.0 # CH4
6 6 9 0.000000 23.941000 21.823999 20.945980 # Ob LIG
7 6 9 0.000000 10.932000 44.355999 20.945980 # Ob LIG
8 6 9 0.000000 23.941000 6.803000 23.221979 # Ob LIG
9 6 9 0.000000 10.932000 29.334000 23.221979 # Ob LIG
10 6 10 0.000000 23.514999 7.995000 20.491980 # Oc LIG
11 6 10 0.000000 10.506000 30.527000 20.491980 # Oc LIG
12 6 8 0.000000 22.554001 7.442000 18.022980 # Oa LIG
13 6 8 0.000000 9.546000 29.973000 18.022980 # Oa LIG
14 6 8 0.000000 22.554001 22.462999 22.575979 # Oa LIG
15 6 8 0.000000 9.546000 44.993999 22.575979 # Oa LIG
16 6 8 0.000000 21.304001 8.301000 22.575979 # Oa LIG
17 6 8 0.000000 8.295000 30.833000 22.575979 # Oa LIG
18 6 9 0.000000 21.164000 9.821000 20.945980 # Ob LIG
19 6 9 0.000000 8.155000 32.353001 20.945980 # Ob LIG
20 6 10 0.000000 21.184000 20.701000 20.491980 # Oc LIG
21 6 10 0.000000 8.176000 43.233002 20.491980 # Oc LIG
22 6 8 0.000000 21.184999 21.809999 18.022980 # Oa LIG
23 6 8 0.000000 8.176000 44.341000 18.022980 # Oa LIG
24 6 9 0.000000 19.938000 20.927999 23.221979 # Ob LIG
25 6 9 0.000000 6.930000 43.459999 23.221979 # Ob LIG
26 6 9 0.000000 19.087999 16.624001 22.302979 # Ob LIG
27 6 9 0.000000 6.079000 39.155998 22.302979 # Ob LIG
28 6 10 0.000000 18.681999 13.676000 22.756979 # Oc LIG
29 6 10 0.000000 5.673000 36.207001 22.756979 # Oc LIG
30 6 8 0.000000 17.841000 15.743000 20.672979 # Oa LIG
31 6 8 0.000000 4.833000 38.275002 20.672979 # Oa LIG
32 6 10 0.000000 17.841999 16.851000 18.204979 # Oc LIG
33 6 10 0.000000 4.833000 39.382999 18.204979 # Oc LIG
34 6 10 0.000000 10.506000 0.485000 18.214979 # Oc LIG
35 6 10 0.000000 23.514999 23.017000 18.214979 # Oc LIG
36 6 10 0.000000 10.506000 15.506000 22.767979 # Oc LIG
37 6 10 0.000000 23.514999 38.036999 22.767979 # Oc LIG
38 6 9 0.000000 10.932000 14.313000 18.668980 # Ob LIG
39 6 9 0.000000 23.941000 36.845001 18.668980 # Ob LIG
40 6 9 0.000000 15.085000 0.708000 20.026979 # Ob LIG
41 6 9 0.000000 2.076000 23.239000 20.026979 # Ob LIG
42 6 9 0.000000 15.085000 15.729000 17.750980 # Ob LIG
43 6 9 0.000000 2.077000 38.259998 17.750980 # Ob LIG
44 6 10 0.000000 15.511000 14.536000 20.480980 # Oc LIG
45 6 10 0.000000 2.503000 37.068001 20.480980 # Oc LIG
46 6 8 0.000000 16.471001 15.090000 22.948978 # Oa LIG
47 6 8 0.000000 3.463000 37.620998 22.948978 # Oa LIG
48 6 8 0.000000 16.471001 0.069000 18.396980 # Oa LIG
49 6 8 0.000000 3.463000 22.601000 18.396980 # Oa LIG
50 6 8 0.000000 17.722000 14.230000 18.396980 # Oa LIG
51 6 8 0.000000 4.713000 36.762001 18.396980 # Oa LIG
52 6 9 0.000000 17.862000 12.710000 20.026979 # Ob LIG
53 6 9 0.000000 4.853000 35.242001 20.026979 # Ob LIG
54 6 10 0.000000 17.841000 1.831000 20.480980 # Oc LIG
55 6 10 0.000000 4.833000 24.362000 20.480980 # Oc LIG
56 6 8 0.000000 17.841000 0.722000 22.948978 # Oa LIG
57 6 8 0.000000 4.833000 23.254000 22.948978 # Oa LIG
58 6 9 0.000000 19.087000 1.603000 17.750980 # Ob LIG
59 6 9 0.000000 6.079000 24.135000 17.750980 # Ob LIG
60 6 9 0.000000 19.938000 5.907000 18.668980 # Ob LIG
61 6 9 0.000000 6.930000 28.438999 18.668980 # Ob LIG
62 6 9 0.000000 2.076000 8.218000 22.302979 # Ob LIG
63 6 9 0.000000 15.085000 30.750000 22.302979 # Ob LIG
64 6 10 0.000000 2.503000 7.026000 18.204979 # Oc LIG
65 6 10 0.000000 15.511000 29.556999 18.204979 # Oc LIG
66 6 10 0.000000 2.503000 22.047001 22.756979 # Oc LIG
67 6 10 0.000000 15.511000 44.577999 22.756979 # Oc LIG
68 6 10 0.000000 20.344000 8.856000 18.215981 # Oc LIG
69 6 10 0.000000 7.336000 31.388000 18.215981 # Oc LIG
70 6 8 0.000000 21.184999 6.789000 20.299980 # Oa LIG
71 6 8 0.000000 8.176000 29.320000 20.299980 # Oa LIG
72 6 10 0.000000 21.184000 5.680000 22.767979 # Oc LIG
73 6 10 0.000000 8.176000 28.212000 22.767979 # Oc LIG
74 6 8 0.000000 3.463000 7.579000 20.672979 # Oa LIG
75 6 8 0.000000 16.471001 30.111000 20.672979 # Oa LIG
76 6 8 0.000000 4.713000 6.720000 22.948978 # Oa LIG
77 6 8 0.000000 17.722000 29.250999 22.948978 # Oa LIG
78 6 8 0.000000 4.713000 21.740999 20.672979 # Oa LIG
79 6 8 0.000000 17.722000 44.271999 20.672979 # Oa LIG
80 6 9 0.000000 4.853000 5.200000 17.750980 # Ob LIG
81 6 9 0.000000 17.862000 27.731001 17.750980 # Ob LIG
82 6 9 0.000000 4.853000 20.221001 22.302979 # Ob LIG
83 6 9 0.000000 17.862000 42.751999 22.302979 # Ob LIG
84 6 10 0.000000 4.833000 9.341000 22.756979 # Oc LIG
85 6 10 0.000000 17.841000 31.872999 22.756979 # Oc LIG
86 6 8 0.000000 4.833000 8.232000 18.396980 # Oa LIG
87 6 8 0.000000 17.841000 30.764000 18.396980 # Oa LIG
88 6 10 0.000000 5.673000 6.165000 20.480980 # Oc LIG
89 6 10 0.000000 18.681999 28.697001 20.480980 # Oc LIG
90 6 10 0.000000 5.673000 21.186001 18.204979 # Oc LIG
91 6 10 0.000000 18.681000 43.717999 18.204979 # Oc LIG
92 6 9 0.000000 6.079000 9.114000 20.026979 # Ob LIG
93 6 9 0.000000 19.087000 31.645000 20.026979 # Ob LIG
94 6 9 0.000000 6.930000 13.418000 20.945980 # Ob LIG
95 6 9 0.000000 19.938000 35.949001 20.945980 # Ob LIG
96 6 10 0.000000 7.336000 1.345000 22.767979 # Oc LIG
97 6 10 0.000000 20.344000 23.877001 22.767979 # Oc LIG
98 6 10 0.000000 7.336000 16.365999 20.491980 # Oc LIG
99 6 10 0.000000 20.344000 38.897999 20.491980 # Oc LIG
100 6 8 0.000000 8.176000 14.299000 22.575979 # Oa LIG
101 6 8 0.000000 21.184999 36.831001 22.575979 # Oa LIG
102 6 10 0.000000 8.176000 13.190000 18.214979 # Oc LIG
103 6 10 0.000000 21.184000 35.722000 18.214979 # Oc LIG
104 6 9 0.000000 8.155000 2.311000 18.668980 # Ob LIG
105 6 9 0.000000 21.164000 24.841999 18.668980 # Ob LIG
106 6 9 0.000000 8.155000 17.332001 23.221979 # Ob LIG
107 6 9 0.000000 21.164000 39.862999 23.221979 # Ob LIG
108 6 8 0.000000 8.296000 0.791000 20.299980 # Oa LIG
109 6 8 0.000000 21.304001 23.322001 20.299980 # Oa LIG
110 6 8 0.000000 8.295000 15.812000 18.022980 # Oa LIG
111 6 8 0.000000 21.304001 38.342999 18.022980 # Oa LIG
112 6 8 0.000000 9.546000 14.952000 20.299980 # Oa LIG
113 6 8 0.000000 22.554001 37.484001 20.299980 # Oa LIG
114 6 5 0.000000 25.868000 7.878000 20.672979 # Cd LIG
115 6 5 0.000000 12.860000 30.409000 20.672979 # Cd LIG
116 6 3 0.000000 24.879999 7.373000 18.527981 # Cb LIG
117 6 3 0.000000 11.871000 29.905001 18.527981 # Cb LIG
118 6 3 0.000000 24.879999 22.393999 23.080978 # Cb LIG
119 6 3 0.000000 11.871000 44.925999 23.080978 # Cb LIG
120 6 4 0.000000 24.708000 7.749000 19.900980 # Cc LIG
121 6 4 0.000000 11.699000 30.280001 19.900980 # Cc LIG
122 6 2 0.000000 23.745001 22.209999 22.137980 # Ca LIG
123 6 2 0.000000 10.736000 44.741001 22.137980 # Ca LIG
124 6 2 0.000000 23.745001 7.188000 17.585979 # Ca LIG
125 6 2 0.000000 10.736000 29.719999 17.585979 # Ca LIG
126 6 2 0.000000 20.927999 9.459000 22.137980 # Ca LIG
127 6 2 0.000000 7.919000 31.990999 22.137980 # Ca LIG
128 6 4 0.000000 20.374001 19.791000 19.900980 # Cc LIG
129 6 4 0.000000 7.365000 42.323002 19.900980 # Cc LIG
130 6 2 0.000000 20.370001 20.905001 17.585979 # Ca LIG
131 6 2 0.000000 7.361000 43.437000 17.585979 # Ca LIG
132 6 3 0.000000 20.201000 10.350000 23.080978 # Cb LIG
133 6 3 0.000000 7.192000 32.881001 23.080978 # Cb LIG
134 6 3 0.000000 19.962999 19.830000 18.527981 # Cb LIG
135 6 3 0.000000 6.954000 42.362000 18.527981 # Cb LIG
136 6 5 0.000000 19.905001 18.722000 20.672979 # Cd LIG
137 6 5 0.000000 6.897000 41.252998 20.672979 # Cd LIG
138 6 5 0.000000 19.757000 11.578000 22.575979 # Cd LIG
139 6 5 0.000000 6.749000 34.110001 22.575979 # Cd LIG
140 6 5 0.000000 19.120001 18.830999 18.022980 # Cd LIG
141 6 5 0.000000 6.112000 41.362999 18.022980 # Cd LIG
142 6 3 0.000000 19.063000 17.723000 20.167980 # Cb LIG
143 6 3 0.000000 6.055000 40.254002 20.167980 # Cb LIG
144 6 4 0.000000 19.065001 12.519000 23.347980 # Cc LIG
145 6 4 0.000000 6.056000 35.050999 23.347980 # Cc LIG
146 6 2 0.000000 18.656000 16.646999 21.110979 # Ca LIG
147 6 2 0.000000 5.647000 39.179001 21.110979 # Ca LIG
148 6 4 0.000000 18.652000 17.761000 18.795979 # Cc LIG
149 6 4 0.000000 5.643000 40.292999 18.795979 # Cc LIG
150 6 5 0.000000 0.149000 7.143000 18.022980 # Cd LIG
151 6 5 0.000000 13.157000 29.674999 18.022980 # Cd LIG
152 6 5 0.000000 0.149000 22.164000 22.575979 # Cd LIG
153 6 5 0.000000 13.157000 44.695999 22.575979 # Cd LIG
154 6 3 0.000000 1.137000 7.648000 20.167980 # Cb LIG
155 6 3 0.000000 14.146000 30.179001 20.167980 # Cb LIG
156 6 4 0.000000 1.309000 22.292999 23.347980 # Cc LIG
157 6 4 0.000000 14.318000 44.825001 23.347980 # Cc LIG
158 6 4 0.000000 1.309000 7.272000 18.795979 # Cc LIG
159 6 4 0.000000 14.318000 29.804001 18.795979 # Cc LIG
160 6 2 0.000000 10.736000 14.699000 19.861980 # Ca LIG
161 6 2 0.000000 23.745001 37.230000 19.861980 # Ca LIG
162 6 4 0.000000 11.699000 15.259000 22.176979 # Cc LIG
163 6 4 0.000000 24.708000 37.791000 22.176979 # Cc LIG
164 6 4 0.000000 11.699000 0.238000 17.624979 # Cc LIG
165 6 4 0.000000 24.708000 22.770000 17.624979 # Cc LIG
166 6 3 0.000000 11.871000 14.884000 20.804979 # Cb LIG
167 6 3 0.000000 24.879999 37.415001 20.804979 # Cb LIG
168 6 5 0.000000 12.860000 0.367000 18.396980 # Cd LIG
169 6 5 0.000000 25.868999 22.899000 18.396980 # Cd LIG
170 6 5 0.000000 12.860000 15.388000 22.949980 # Cd LIG
171 6 5 0.000000 25.868000 37.919998 22.949980 # Cd LIG
172 6 5 0.000000 13.157000 14.654000 20.299980 # Cd LIG
173 6 5 0.000000 0.149000 37.185001 20.299980 # Cd LIG
174 6 3 0.000000 14.146000 15.158000 22.443979 # Cb LIG
175 6 3 0.000000 1.137000 37.689999 22.443979 # Cb LIG
176 6 3 0.000000 14.146000 0.137000 17.891979 # Cb LIG
177 6 3 0.000000 1.137000 22.669001 17.891979 # Cb LIG
178 6 4 0.000000 14.318000 14.783000 21.071980 # Cc LIG
179 6 4 0.000000 1.309000 37.313999 21.071980 # Cc LIG
180 6 2 0.000000 15.281000 0.322000 18.834980 # Ca LIG
181 6 2 0.000000 2.272000 22.854000 18.834980 # Ca LIG
182 6 2 0.000000 15.281000 15.343000 23.386980 # Ca LIG
183 6 2 0.000000 2.272000 37.875000 23.386980 # Ca LIG
184 6 2 0.000000 18.098000 13.072000 18.833981 # Ca LIG
185 6 2 0.000000 5.089000 35.604000 18.833981 # Ca LIG
186 6 4 0.000000 18.652000 2.740000 21.071980 # Cc LIG
187 6 4 0.000000 5.643000 25.271999 21.071980 # Cc LIG
188 6 2 0.000000 18.656000 1.626000 23.386980 # Ca LIG
189 6 2 0.000000 5.647000 24.158001 23.386980 # Ca LIG
190 6 3 0.000000 18.825001 12.182000 17.891979 # Cb LIG
191 6 3 0.000000 5.816000 34.714001 17.891979 # Cb LIG
192 6 3 0.000000 19.063000 2.701000 22.443979 # Cb LIG
193 6 3 0.000000 6.055000 25.233000 22.443979 # Cb LIG
194 6 5 0.000000 19.120001 3.810000 20.299980 # Cd LIG
195 6 5 0.000000 6.111000 26.341999 20.299980 # Cd LIG
196 6 5 0.000000 19.268999 10.953000 18.396980 # Cd LIG
197 6 5 0.000000 6.260000 33.485001 18.396980 # Cd LIG
198 6 5 0.000000 19.906000 3.700000 22.948978 # Cd LIG
199 6 5 0.000000 6.897000 26.232000 22.948978 # Cd LIG
200 6 2 0.000000 2.272000 7.833000 21.110979 # Ca LIG
201 6 2 0.000000 15.281000 30.364000 21.110979 # Ca LIG
202 6 3 0.000000 19.962000 4.809000 20.804979 # Cb LIG
203 6 3 0.000000 6.954000 27.341000 20.804979 # Cb LIG
204 6 4 0.000000 19.961000 10.013000 17.624979 # Cc LIG
205 6 4 0.000000 6.953000 32.543999 17.624979 # Cc LIG
206 6 2 0.000000 20.370001 5.884000 19.861980 # Ca LIG
207 6 2 0.000000 7.361000 28.416000 19.861980 # Ca LIG
208 6 4 0.000000 20.374001 4.770000 22.176979 # Cc LIG
209 6 4 0.000000 7.366000 27.302000 22.176979 # Cc LIG
210 6 2 0.000000 5.089000 5.562000 23.386980 # Ca LIG
211 6 2 0.000000 18.098000 28.093000 23.386980 # Ca LIG
212 6 2 0.000000 5.089000 20.583000 21.110979 # Ca LIG
213 6 2 0.000000 18.098000 43.115002 21.110979 # Ca LIG
214 6 4 0.000000 5.643000 10.251000 23.347980 # Cc LIG
215 6 4 0.000000 18.652000 32.783001 23.347980 # Cc LIG
216 6 2 0.000000 5.647000 9.137000 18.834980 # Ca LIG
217 6 2 0.000000 18.656000 31.667999 18.834980 # Ca LIG
218 6 3 0.000000 5.816000 4.671000 22.443979 # Cb LIG
219 6 3 0.000000 18.825001 27.202999 22.443979 # Cb LIG
220 6 3 0.000000 5.817000 19.693001 20.167980 # Cb LIG
221 6 3 0.000000 18.825001 42.223999 20.167980 # Cb LIG
222 6 4 0.000000 6.056000 5.008000 21.071980 # Cc LIG
223 6 4 0.000000 19.065001 27.540001 21.071980 # Cc LIG
224 6 4 0.000000 6.056000 20.028999 18.795979 # Cc LIG
225 6 4 0.000000 19.063999 42.561001 18.795979 # Cc LIG
226 6 3 0.000000 6.055000 10.212000 17.891979 # Cb LIG
227 6 3 0.000000 19.063000 32.743000 17.891979 # Cb LIG
228 6 5 0.000000 6.111000 11.321000 22.575979 # Cd LIG
229 6 5 0.000000 19.120001 33.852001 22.575979 # Cd LIG
230 6 5 0.000000 6.260000 3.443000 22.948978 # Cd LIG
231 6 5 0.000000 19.268999 25.974001 22.948978 # Cd LIG
232 6 5 0.000000 6.261000 18.464001 20.672979 # Cd LIG
233 6 5 0.000000 19.268999 40.994999 20.672979 # Cd LIG
234 6 5 0.000000 6.748000 4.068000 20.299980 # Cd LIG
235 6 5 0.000000 19.757000 26.599001 20.299980 # Cd LIG
236 6 5 0.000000 6.748000 19.089001 18.022980 # Cd LIG
237 6 5 0.000000 19.757000 41.619999 18.022980 # Cd LIG
238 6 5 0.000000 6.897000 11.211000 18.396980 # Cd LIG
239 6 5 0.000000 19.906000 33.742001 18.396980 # Cd LIG
240 6 3 0.000000 6.954000 12.320000 23.080978 # Cb LIG
241 6 3 0.000000 19.962000 34.851002 23.080978 # Cb LIG
242 6 4 0.000000 6.953000 2.502000 22.176979 # Cc LIG
243 6 4 0.000000 19.961000 25.034000 22.176979 # Cc LIG
244 6 4 0.000000 6.953000 17.523001 19.900980 # Cc LIG
245 6 4 0.000000 19.961000 40.055000 19.900980 # Cc LIG
246 6 3 0.000000 7.192000 2.839000 20.804979 # Cb LIG
247 6 3 0.000000 20.201000 25.371000 20.804979 # Cb LIG
248 6 3 0.000000 7.192000 17.860001 18.527981 # Cb LIG
249 6 3 0.000000 20.201000 40.390999 18.527981 # Cb LIG
250 6 2 0.000000 7.361000 13.395000 22.137980 # Ca LIG
251 6 2 0.000000 20.370001 35.925999 22.137980 # Ca LIG
252 6 4 0.000000 7.366000 12.281000 17.624979 # Cc LIG
253 6 4 0.000000 20.374001 34.812000 17.624979 # Cc LIG
254 6 2 0.000000 7.919000 1.949000 19.861980 # Ca LIG
255 6 2 0.000000 20.927999 24.480000 19.861980 # Ca LIG
256 6 2 0.000000 7.919000 16.969999 17.585979 # Ca LIG
257 6 2 0.000000 20.927999 39.500999 17.585979 # Ca LIG
258 6 6 0.000000 25.764999 8.173000 21.715981 # H LIG
259 6 6 0.000000 12.756000 30.704000 21.715981 # H LIG
260 6 6 0.000000 20.212999 18.664000 21.715981 # H LIG
261 6 6 0.000000 7.204000 41.195999 21.715981 # H LIG
262 6 6 0.000000 19.961000 11.816000 21.532980 # H LIG
263 6 6 0.000000 6.952000 34.347000 21.532980 # H LIG
264 6 6 0.000000 18.813000 18.889000 23.808979 # H LIG
265 6 6 0.000000 5.805000 41.419998 23.808979 # H LIG
266 6 6 0.000000 0.252000 6.849000 23.808979 # H LIG
267 6 6 0.000000 13.261000 29.379999 23.808979 # H LIG
268 6 6 0.000000 0.252000 21.870001 21.532980 # H LIG
269 6 6 0.000000 13.261000 44.401001 21.532980 # H LIG
270 6 6 0.000000 12.756000 0.662000 19.439980 # H LIG
271 6 6 0.000000 25.764999 23.194000 19.439980 # H LIG
272 6 6 0.000000 12.756000 15.683000 17.163979 # H LIG
273 6 6 0.000000 25.764999 38.215000 17.163979 # H LIG
274 6 6 0.000000 13.261000 14.359000 19.255980 # H LIG
275 6 6 0.000000 0.252000 36.890999 19.255980 # H LIG
276 6 6 0.000000 18.813000 3.868000 19.256979 # H LIG
277 6 6 0.000000 5.804000 26.399000 19.256979 # H LIG
278 6 6 0.000000 19.065001 10.716000 19.439980 # H LIG
279 6 6 0.000000 6.057000 33.248001 19.439980 # H LIG
280 6 6 0.000000 20.212999 3.643000 17.163979 # H LIG
281 6 6 0.000000 7.204000 26.174000 17.163979 # H LIG
282 6 6 0.000000 5.804000 11.378000 21.532980 # H LIG
283 6 6 0.000000 18.813000 33.910000 21.532980 # H LIG
284 6 6 0.000000 6.057000 3.205000 17.163979 # H LIG
285 6 6 0.000000 19.065001 25.737000 17.163979 # H LIG
286 6 6 0.000000 6.057000 18.226999 21.715981 # H LIG
287 6 6 0.000000 19.066000 40.757999 21.715981 # H LIG
288 6 6 0.000000 6.952000 4.305000 19.256979 # H LIG
289 6 6 0.000000 19.959999 26.837000 19.256979 # H LIG
290 6 6 0.000000 6.951000 19.326000 23.808979 # H LIG
291 6 6 0.000000 19.959999 41.856998 23.808979 # H LIG
292 6 6 0.000000 7.204000 11.153000 19.439980 # H LIG
293 6 6 0.000000 20.212999 33.685001 19.439980 # H LIG
294 6 7 0.000000 22.488001 21.886000 19.548981 # Ni LIG
295 6 7 0.000000 9.479000 44.417999 19.548981 # Ni LIG
296 6 7 0.000000 20.719000 22.156000 21.825979 # Ni LIG
297 6 7 0.000000 7.710000 44.687000 21.825979 # Ni LIG
298 6 7 0.000000 8.828000 1.021000 17.272980 # Ni LIG
299 6 7 0.000000 21.837000 23.552999 17.272980 # Ni LIG
300 6 7 0.000000 16.538000 0.645000 21.423981 # Ni LIG
301 6 7 0.000000 3.529000 23.177000 21.423981 # Ni LIG
302 6 7 0.000000 18.306999 0.376000 19.147980 # Ni LIG
303 6 7 0.000000 5.299000 22.908001 19.147980 # Ni LIG
304 6 7 0.000000 4.181000 21.510000 23.699980 # Ni LIG
305 6 7 0.000000 17.188999 44.042000 23.699980 # Ni LIG
306 6 7 0.000000 22.488001 6.865000 21.824980 # Ni LIG
307 6 7 0.000000 9.479000 29.396999 21.824980 # Ni LIG
308 6 7 0.000000 21.837000 8.532000 19.548981 # Ni LIG
309 6 7 0.000000 8.828000 31.063000 19.548981 # Ni LIG
310 6 7 0.000000 20.718000 7.135000 17.272980 # Ni LIG
311 6 7 0.000000 7.710000 29.666000 17.272980 # Ni LIG
312 6 7 0.000000 3.529000 8.156000 23.699980 # Ni LIG
313 6 7 0.000000 16.538000 30.688000 23.699980 # Ni LIG
314 6 7 0.000000 4.180000 6.489000 19.147980 # Ni LIG
315 6 7 0.000000 17.188999 29.021000 19.147980 # Ni LIG
316 6 7 0.000000 5.299000 7.886000 21.423981 # Ni LIG
317 6 7 0.000000 18.306999 30.417999 21.423981 # Ni LIG
318 6 7 0.000000 7.710000 14.645000 19.548981 # Ni LIG
319 6 7 0.000000 20.719000 37.176998 19.548981 # Ni LIG
320 6 7 0.000000 8.828000 16.042000 21.824980 # Ni LIG
321 6 7 0.000000 21.837000 38.574001 21.824980 # Ni LIG
322 6 7 0.000000 9.479000 14.375000 17.272980 # Ni LIG
323 6 7 0.000000 22.488001 36.907001 17.272980 # Ni LIG
324 6 7 0.000000 18.306999 15.397000 23.699980 # Ni LIG
325 6 7 0.000000 5.299000 37.929001 23.699980 # Ni LIG
326 6 7 0.000000 16.538000 15.666000 19.146980 # Ni LIG
327 6 7 0.000000 3.529000 38.198002 19.146980 # Ni LIG
328 6 7 0.000000 17.188999 14.000000 21.423981 # Ni LIG
329 6 7 0.000000 4.180000 36.530998 21.423981 # Ni LIG
330 6 9 0.000000 23.941000 21.823999 0.459500 # Ob LIG
331 6 9 0.000000 10.932000 44.355999 0.459500 # Ob LIG
332 6 9 0.000000 23.941000 6.803000 2.735500 # Ob LIG
333 6 9 0.000000 10.932000 29.334000 2.735500 # Ob LIG
334 6 10 0.000000 23.514999 7.995000 0.005500 # Oc LIG
335 6 10 0.000000 10.506000 30.527000 0.005500 # Oc LIG
336 6 8 0.000000 22.554001 7.442000 24.851978 # Oa LIG
337 6 8 0.000000 9.546000 29.973000 24.851978 # Oa LIG
338 6 8 0.000000 22.554001 22.462999 2.089500 # Oa LIG
339 6 8 0.000000 9.546000 44.993999 2.089500 # Oa LIG
340 6 8 0.000000 21.304001 8.301000 2.089500 # Oa LIG
341 6 8 0.000000 8.295000 30.833000 2.089500 # Oa LIG
342 6 9 0.000000 21.164000 9.821000 0.459500 # Ob LIG
343 6 9 0.000000 8.155000 32.353001 0.459500 # Ob LIG
344 6 10 0.000000 21.184000 20.701000 0.005500 # Oc LIG
345 6 10 0.000000 8.176000 43.233002 0.005500 # Oc LIG
346 6 8 0.000000 21.184999 21.809999 24.851978 # Oa LIG
347 6 8 0.000000 8.176000 44.341000 24.851978 # Oa LIG
348 6 9 0.000000 19.938000 20.927999 2.735500 # Ob LIG
349 6 9 0.000000 6.930000 43.459999 2.735500 # Ob LIG
350 6 9 0.000000 19.087999 16.624001 1.816500 # Ob LIG
351 6 9 0.000000 6.079000 39.155998 1.816500 # Ob LIG
352 6 10 0.000000 18.681999 13.676000 2.270500 # Oc LIG
353 6 10 0.000000 5.673000 36.207001 2.270500 # Oc LIG
354 6 8 0.000000 17.841000 15.743000 0.186500 # Oa LIG
355 6 8 0.000000 4.833000 38.275002 0.186500 # Oa LIG
356 6 10 0.000000 17.841999 16.851000 25.033979 # Oc LIG
357 6 10 0.000000 4.833000 39.382999 25.033979 # Oc LIG
358 6 10 0.000000 10.506000 0.485000 25.043980 # Oc LIG
359 6 10 0.000000 23.514999 23.017000 25.043980 # Oc LIG
360 6 10 0.000000 10.506000 15.506000 2.281500 # Oc LIG
361 6 10 0.000000 23.514999 38.036999 2.281500 # Oc LIG
362 6 9 0.000000 10.932000 14.313000 25.497980 # Ob LIG
363 6 9 0.000000 23.941000 36.845001 25.497980 # Ob LIG
364 6 9 0.000000 15.085000 0.708000 26.855980 # Ob LIG
365 6 9 0.000000 2.076000 23.239000 26.855980 # Ob LIG
366 6 9 0.000000 15.085000 15.729000 24.579979 # Ob LIG
367 6 9 0.000000 2.077000 38.259998 24.579979 # Ob LIG
368 6 10 0.000000 15.511000 14.536000 27.309978 # Oc LIG
369 6 10 0.000000 2.503000 37.068001 27.309978 # Oc LIG
370 6 8 0.000000 16.471001 15.090000 2.462500 # Oa LIG
371 6 8 0.000000 3.463000 37.620998 2.462500 # Oa LIG
372 6 8 0.000000 16.471001 0.069000 25.225979 # Oa LIG
373 6 8 0.000000 3.463000 22.601000 25.225979 # Oa LIG
374 6 8 0.000000 17.722000 14.230000 25.225979 # Oa LIG
375 6 8 0.000000 4.713000 36.762001 25.225979 # Oa LIG
376 6 9 0.000000 17.862000 12.710000 26.855980 # Ob LIG
377 6 9 0.000000 4.853000 35.242001 26.855980 # Ob LIG
378 6 10 0.000000 17.841000 1.831000 27.309978 # Oc LIG
379 6 10 0.000000 4.833000 24.362000 27.309978 # Oc LIG
380 6 8 0.000000 17.841000 0.722000 2.462500 # Oa LIG
381 6 8 0.000000 4.833000 23.254000 2.462500 # Oa LIG
382 6 9 0.000000 19.087000 1.603000 24.579979 # Ob LIG
383 6 9 0.000000 6.079000 24.135000 24.579979 # Ob LIG
384 6 9 0.000000 19.938000 5.907000 25.497980 # Ob LIG
385 6 9 0.000000 6.930000 28.438999 25.497980 # Ob LIG
386 6 9 0.000000 2.076000 8.218000 1.816500 # Ob LIG
387 6 9 0.000000 15.085000 30.750000 1.816500 # Ob LIG
388 6 10 0.000000 2.503000 7.026000 25.033979 # Oc LIG
389 6 10 0.000000 15.511000 29.556999 25.033979 # Oc LIG
390 6 10 0.000000 2.503000 22.047001 2.270500 # Oc LIG
391 6 10 0.000000 15.511000 44.577999 2.270500 # Oc LIG
392 6 10 0.000000 20.344000 8.856000 25.044979 # Oc LIG
393 6 10 0.000000 7.336000 31.388000 25.044979 # Oc LIG
394 6 8 0.000000 21.184999 6.789000 27.128979 # Oa LIG
395 6 8 0.000000 8.176000 29.320000 27.128979 # Oa LIG
396 6 10 0.000000 21.184000 5.680000 2.281500 # Oc LIG
397 6 10 0.000000 8.176000 28.212000 2.281500 # Oc LIG
398 6 8 0.000000 3.463000 7.579000 0.186500 # Oa LIG
399 6 8 0.000000 16.471001 30.111000 0.186500 # Oa LIG
400 6 8 0.000000 4.713000 6.720000 2.462500 # Oa LIG
401 6 8 0.000000 17.722000 29.250999 2.462500 # Oa LIG
402 6 8 0.000000 4.713000 21.740999 0.186500 # Oa LIG
403 6 8 0.000000 17.722000 44.271999 0.186500 # Oa LIG
404 6 9 0.000000 4.853000 5.200000 24.579979 # Ob LIG
405 6 9 0.000000 17.862000 27.731001 24.579979 # Ob LIG
406 6 9 0.000000 4.853000 20.221001 1.816500 # Ob LIG
407 6 9 0.000000 17.862000 42.751999 1.816500 # Ob LIG
408 6 10 0.000000 4.833000 9.341000 2.270500 # Oc LIG
409 6 10 0.000000 17.841000 31.872999 2.270500 # Oc LIG
410 6 8 0.000000 4.833000 8.232000 25.225979 # Oa LIG
411 6 8 0.000000 17.841000 30.764000 25.225979 # Oa LIG
412 6 10 0.000000 5.673000 6.165000 27.309978 # Oc LIG
413 6 10 0.000000 18.681999 28.697001 27.309978 # Oc LIG
414 6 10 0.000000 5.673000 21.186001 25.033979 # Oc LIG
415 6 10 0.000000 18.681000 43.717999 25.033979 # Oc LIG
416 6 9 0.000000 6.079000 9.114000 26.855980 # Ob LIG
417 6 9 0.000000 19.087000 31.645000 26.855980 # Ob LIG
418 6 9 0.000000 6.930000 13.418000 0.459500 # Ob LIG
419 6 9 0.000000 19.938000 35.949001 0.459500 # Ob LIG
420 6 10 0.000000 7.336000 1.345000 2.281500 # Oc LIG
421 6 10 0.000000 20.344000 23.877001 2.281500 # Oc LIG
422 6 10 0.000000 7.336000 16.365999 0.005500 # Oc LIG
423 6 10 0.000000 20.344000 38.897999 0.005500 # Oc LIG
424 6 8 0.000000 8.176000 14.299000 2.089500 # Oa LIG
425 6 8 0.000000 21.184999 36.831001 2.089500 # Oa LIG
426 6 10 0.000000 8.176000 13.190000 25.043980 # Oc LIG
427 6 10 0.000000 21.184000 35.722000 25.043980 # Oc LIG
428 6 9 0.000000 8.155000 2.311000 25.497980 # Ob LIG
429 6 9 0.000000 21.164000 24.841999 25.497980 # Ob LIG
430 6 9 0.000000 8.155000 17.332001 2.735500 # Ob LIG
431 6 9 0.000000 21.164000 39.862999 2.735500 # Ob LIG
432 6 8 0.000000 8.296000 0.791000 27.128979 # Oa LIG
433 6 8 0.000000 21.304001 23.322001 27.128979 # Oa LIG
434 6 8 0.000000 8.295000 15.812000 24.851978 # Oa LIG
435 6 8 0.000000 21.304001 38.342999 24.851978 # Oa LIG
436 6 8 0.000000 9.546000 14.952000 27.128979 # Oa LIG
437 6 8 0.000000 22.554001 37.484001 27.128979 # Oa LIG
438 6 5 0.000000 25.868000 7.878000 0.186500 # Cd LIG
439 6 5 0.000000 12.860000 30.409000 0.186500 # Cd LIG
440 6 3 0.000000 24.879999 7.373000 25.356979 # Cb LIG
441 6 3 0.000000 11.871000 29.905001 25.356979 # Cb LIG
442 6 3 0.000000 24.879999 22.393999 2.594500 # Cb LIG
443 6 3 0.000000 11.871000 44.925999 2.594500 # Cb LIG
444 6 4 0.000000 24.708000 7.749000 26.729979 # Cc LIG
445 6 4 0.000000 11.699000 30.280001 26.729979 # Cc LIG
446 6 2 0.000000 23.745001 22.209999 1.651500 # Ca LIG
447 6 2 0.000000 10.736000 44.741001 1.651500 # Ca LIG
448 6 2 0.000000 23.745001 7.188000 24.414980 # Ca LIG
449 6 2 0.000000 10.736000 29.719999 24.414980 # Ca LIG
450 6 2 0.000000 20.927999 9.459000 1.651500 # Ca LIG
451 6 2 0.000000 7.919000 31.990999 1.651500 # Ca LIG
452 6 4 0.000000 20.374001 19.791000 26.729979 # Cc LIG
453 6 4 0.000000 7.365000 42.323002 26.729979 # Cc LIG
454 6 2 0.000000 20.370001 20.905001 24.414980 # Ca LIG
455 6 2 0.000000 7.361000 43.437000 24.414980 # Ca LIG
456 6 3 0.000000 20.201000 10.350000 2.594500 # Cb LIG
457 6 3 0.000000 7.192000 32.881001 2.594500 # Cb LIG
458 6 3 0.000000 19.962999 19.830000 25.356979 # Cb LIG
459 6 3 0.000000 6.954000 42.362000 25.356979 # Cb LIG
460 6 5 0.000000 19.905001 18.722000 0.186500 # Cd LIG
461 6 5 0.000000 6.897000 41.252998 0.186500 # Cd LIG
462 6 5 0.000000 19.757000 11.578000 2.089500 # Cd LIG
463 6 5 0.000000 6.749000 34.110001 2.089500 # Cd LIG
464 6 5 0.000000 19.120001 18.830999 24.851978 # Cd LIG
465 6 5 0.000000 6.112000 41.362999 24.851978 # Cd LIG
466 6 3 0.000000 19.063000 17.723000 26.996979 # Cb LIG
467 6 3 0.000000 6.055000 40.254002 26.996979 # Cb LIG
468 6 4 0.000000 19.065001 12.519000 2.861500 # Cc LIG
469 6 4 0.000000 6.056000 35.050999 2.861500 # Cc LIG
470 6 2 0.000000 18.656000 16.646999 0.624500 # Ca LIG
471 6 2 0.000000 5.647000 39.179001 0.624500 # Ca LIG
472 6 4 0.000000 18.652000 17.761000 25.624979 # Cc LIG
473 6 4 0.000000 5.643000 40.292999 25.624979 # Cc LIG
474 6 5 0.000000 0.149000 7.143000 24.851978 # Cd LIG
475 6 5 0.000000 13.157000 29.674999 24.851978 # Cd LIG
476 6 5 0.000000 0.149000 22.164000 2.089500 # Cd LIG
477 6 5 0.000000 13.157000 44.695999 2.089500 # Cd LIG
478 6 3 0.000000 1.137000 7.648000 26.996979 # Cb LIG
479 6 3 0.000000 14.146000 30.179001 26.996979 # Cb LIG
480 6 4 0.000000 1.309000 22.292999 2.861500 # Cc LIG
481 6 4 0.000000 14.318000 44.825001 2.861500 # Cc LIG
482 6 4 0.000000 1.309000 7.272000 25.624979 # Cc LIG
483 6 4 0.000000 14.318000 29.804001 25.624979 # Cc LIG
484 6 2 0.000000 10.736000 14.699000 26.690979 # Ca LIG
485 6 2 0.000000 23.745001 37.230000 26.690979 # Ca LIG
486 6 4 0.000000 11.699000 15.259000 1.690500 # Cc LIG
487 6 4 0.000000 24.708000 37.791000 1.690500 # Cc LIG
488 6 4 0.000000 11.699000 0.238000 24.453979 # Cc LIG
489 6 4 0.000000 24.708000 22.770000 24.453979 # Cc LIG
490 6 3 0.000000 11.871000 14.884000 0.318500 # Cb LIG
491 6 3 0.000000 24.879999 37.415001 0.318500 # Cb LIG
492 6 5 0.000000 12.860000 0.367000 25.225979 # Cd LIG
493 6 5 0.000000 25.868999 22.899000 25.225979 # Cd LIG
494 6 5 0.000000 12.860000 15.388000 2.463500 # Cd LIG
495 6 5 0.000000 25.868000 37.919998 2.463500 # Cd LIG
496 6 5 0.000000 13.157000 14.654000 27.128979 # Cd LIG
497 6 5 0.000000 0.149000 37.185001 27.128979 # Cd LIG
498 6 3 0.000000 14.146000 15.158000 1.957500 # Cb LIG
499 6 3 0.000000 1.137000 37.689999 1.957500 # Cb LIG
500 6 3 0.000000 14.146000 0.137000 24.720980 # Cb LIG
501 6 3 0.000000 1.137000 22.669001 24.720980 # Cb LIG
502 6 4 0.000000 14.318000 14.783000 0.585500 # Cc LIG
503 6 4 0.000000 1.309000 37.313999 0.585500 # Cc LIG
504 6 2 0.000000 15.281000 0.322000 25.663979 # Ca LIG
505 6 2 0.000000 2.272000 22.854000 25.663979 # Ca LIG
506 6 2 0.000000 15.281000 15.343000 2.900500 # Ca LIG
507 6 2 0.000000 2.272000 37.875000 2.900500 # Ca LIG
508 6 2 0.000000 18.098000 13.072000 25.662979 # Ca LIG
509 6 2 0.000000 5.089000 35.604000 25.662979 # Ca LIG
510 6 4 0.000000 18.652000 2.740000 0.585500 # Cc LIG
511 6 4 0.000000 5.643000 25.271999 0.585500 # Cc LIG
512 6 2 0.000000 18.656000 1.626000 2.900500 # Ca LIG
513 6 2 0.000000 5.647000 24.158001 2.900500 # Ca LIG
514 6 3 0.000000 18.825001 12.182000 24.720980 # Cb LIG
515 6 3 0.000000 5.816000 34.714001 24.720980 # Cb LIG
516 6 3 0.000000 19.063000 2.701000 1.957500 # Cb LIG
517 6 3 0.000000 6.055000 25.233000 1.957500 # Cb LIG
518 6 5 0.000000 19.120001 3.810000 27.128979 # Cd LIG
519 6 5 0.000000 6.111000 26.341999 27.128979 # Cd LIG
520 6 5 0.000000 19.268999 10.953000 25.225979 # Cd LIG
521 6 5 0.000000 6.260000 33.485001 25.225979 # Cd LIG
522 6 5 0.000000 19.906000 3.700000 2.462500 # Cd LIG
523 6 5 0.000000 6.897000 26.232000 2.462500 # Cd LIG
524 6 2 0.000000 2.272000 7.833000 0.624500 # Ca LIG
525 6 2 0.000000 15.281000 30.364000 0.624500 # Ca LIG
526 6 3 0.000000 19.962000 4.809000 0.318500 # Cb LIG
527 6 3 0.000000 6.954000 27.341000 0.318500 # Cb LIG
528 6 4 0.000000 19.961000 10.013000 24.453979 # Cc LIG
529 6 4 0.000000 6.953000 32.543999 24.453979 # Cc LIG
530 6 2 0.000000 20.370001 5.884000 26.690979 # Ca LIG
531 6 2 0.000000 7.361000 28.416000 26.690979 # Ca LIG
532 6 4 0.000000 20.374001 4.770000 1.690500 # Cc LIG
533 6 4 0.000000 7.366000 27.302000 1.690500 # Cc LIG
534 6 2 0.000000 5.089000 5.562000 2.900500 # Ca LIG
535 6 2 0.000000 18.098000 28.093000 2.900500 # Ca LIG