LAMMPS data file. CGCMM style. atom_style full generated by VMD/TopoTools v1.5 on Sun May 20 07:26:02 PDT 2018
 2595 atoms
 0 bonds
 0 angles
 0 dihedrals
 0 impropers
 10 atom types
 0 bond types
 0 angle types
 0 dihedral types
 0 improper types
 0.451838 52.642840  xlo xhi
 0.325101 45.523500  ylo yhi
 -0.407500 27.119741  zlo zhi

# Pair Coeffs
#
# 1  CH4
# 2  Ca
# 3  Cb
# 4  Cc
# 5  Cd
# 6  H
# 7  Oa
# 8  Ob
# 9  Oc
# 10  Zn

 Masses

 1 16.040001 # CH4
 2 12.011000 # Ca
 3 12.011000 # Cb
 4 12.011000 # Cc
 5 12.011000 # Cd
 6 1.008000 # H
 7 15.999000 # Oa
 8 15.999000 # Ob
 9 15.999000 # Oc
 10 65.379997 # Zn

 Atoms

1 1 1 0.000000 0.0 0.0 1.0 # CH4
2 2 1 0.000000 0.0 0.0 2.0 # CH4
3 3 1 0.000000 0.0 0.0 3.0 # CH4
4 4 10 0.000000 5.331000 7.994000 21.569241 # Zn LIG
5 4 10 0.000000 18.378000 30.594000 21.569241 # Zn LIG
6 4 10 0.000000 31.426001 7.994000 21.569241 # Zn LIG
7 4 10 0.000000 44.473999 30.594000 21.569241 # Zn LIG
8 4 2 0.000000 5.724000 9.170000 18.988241 # Ca LIG
9 4 2 0.000000 18.771999 31.768999 18.988241 # Ca LIG
10 4 2 0.000000 31.819000 9.170000 18.988241 # Ca LIG
11 4 2 0.000000 44.867001 31.768999 18.988241 # Ca LIG
12 4 3 0.000000 6.104000 10.244000 18.040241 # Cb LIG
13 4 3 0.000000 19.150999 32.842999 18.040241 # Cb LIG
14 4 3 0.000000 32.199001 10.244000 18.040241 # Cb LIG
15 4 3 0.000000 45.247002 32.842999 18.040241 # Cb LIG
16 4 5 0.000000 6.937000 11.262000 18.520241 # Cd LIG
17 4 5 0.000000 19.983999 33.861000 18.520241 # Cd LIG
18 4 5 0.000000 33.032001 11.262000 18.520241 # Cd LIG
19 4 5 0.000000 46.080002 33.861000 18.520241 # Cd LIG
20 4 6 0.000000 7.258000 11.221000 19.558241 # H LIG
21 4 6 0.000000 20.306000 33.820000 19.558241 # H LIG
22 4 6 0.000000 33.353001 11.221000 19.558241 # H LIG
23 4 6 0.000000 46.401001 33.820000 19.558241 # H LIG
24 4 8 0.000000 6.191000 9.168000 20.176241 # Ob LIG
25 4 8 0.000000 19.238001 31.767000 20.176241 # Ob LIG
26 4 8 0.000000 32.285999 9.168000 20.176241 # Ob LIG
27 4 8 0.000000 45.334000 31.767000 20.176241 # Ob LIG
28 4 7 0.000000 4.915000 8.263000 18.567242 # Oa LIG
29 4 7 0.000000 17.962999 30.862000 18.567242 # Oa LIG
30 4 7 0.000000 31.010000 8.263000 18.567242 # Oa LIG
31 4 7 0.000000 44.057999 30.862000 18.567242 # Oa LIG
32 4 9 0.000000 8.191000 13.251000 18.306240 # Oc LIG
33 4 9 0.000000 21.238001 35.849998 18.306240 # Oc LIG
34 4 9 0.000000 34.285999 13.251000 18.306240 # Oc LIG
35 4 9 0.000000 47.334000 35.849998 18.306240 # Oc LIG
36 4 10 0.000000 4.258000 6.452000 19.275242 # Zn LIG
37 4 10 0.000000 17.306000 29.052000 19.275242 # Zn LIG
38 4 10 0.000000 30.353001 6.452000 19.275242 # Zn LIG
39 4 10 0.000000 43.401001 29.052000 19.275242 # Zn LIG
40 4 10 0.000000 3.459000 8.152000 23.863241 # Zn LIG
41 4 10 0.000000 16.507000 30.750999 23.863241 # Zn LIG
42 4 10 0.000000 29.554001 8.152000 23.863241 # Zn LIG
43 4 10 0.000000 42.602001 30.750999 23.863241 # Zn LIG
44 4 10 0.000000 7.717000 14.605000 19.721241 # Zn LIG
45 4 10 0.000000 20.764999 37.203999 19.721241 # Zn LIG
46 4 10 0.000000 33.812000 14.605000 19.721241 # Zn LIG
47 4 10 0.000000 46.860001 37.203999 19.721241 # Zn LIG
48 4 7 0.000000 4.698000 6.678000 23.155241 # Oa LIG
49 4 7 0.000000 17.746000 29.277000 23.155241 # Oa LIG
50 4 7 0.000000 30.794001 6.678000 23.155241 # Oa LIG
51 4 7 0.000000 43.841000 29.277000 23.155241 # Oa LIG
52 4 7 0.000000 3.434000 7.658000 20.861240 # Oa LIG
53 4 7 0.000000 16.482000 30.257000 20.861240 # Oa LIG
54 4 7 0.000000 29.530001 7.658000 20.861240 # Oa LIG
55 4 7 0.000000 42.577000 30.257000 20.861240 # Oa LIG
56 4 9 0.000000 4.857000 9.348000 22.984241 # Oc LIG
57 4 9 0.000000 17.905001 31.947001 22.984241 # Oc LIG
58 4 9 0.000000 30.952000 9.348000 22.984241 # Oc LIG
59 4 9 0.000000 44.000000 31.947001 22.984241 # Oc LIG
60 4 9 0.000000 5.667000 6.186000 20.690241 # Oc LIG
61 4 9 0.000000 18.715000 28.785000 20.690241 # Oc LIG
62 4 9 0.000000 31.763000 6.186000 20.690241 # Oc LIG
63 4 9 0.000000 44.810001 28.785000 20.690241 # Oc LIG
64 4 4 0.000000 5.670000 10.272000 23.559240 # Cc LIG
65 4 4 0.000000 18.718000 32.870998 23.559240 # Cc LIG
66 4 4 0.000000 31.764999 10.272000 23.559240 # Cc LIG
67 4 4 0.000000 44.813000 32.870998 23.559240 # Cc LIG
68 4 2 0.000000 7.324000 13.429000 22.302240 # Ca LIG
69 4 2 0.000000 20.371000 36.028000 22.302240 # Ca LIG
70 4 2 0.000000 33.418999 13.429000 22.302240 # Ca LIG
71 4 2 0.000000 46.466999 36.028000 22.302240 # Ca LIG
72 4 3 0.000000 6.944000 12.355000 23.250240 # Cb LIG
73 4 3 0.000000 19.992001 34.953999 23.250240 # Cb LIG
74 4 3 0.000000 33.039001 12.355000 23.250240 # Cb LIG
75 4 3 0.000000 46.087002 34.953999 23.250240 # Cb LIG
76 4 4 0.000000 7.378000 12.327000 17.730240 # Cc LIG
77 4 4 0.000000 20.424999 34.925999 17.730240 # Cc LIG
78 4 4 0.000000 33.473000 12.327000 17.730240 # Cc LIG
79 4 4 0.000000 46.521000 34.925999 17.730240 # Cc LIG
80 4 5 0.000000 6.111000 11.337000 22.770241 # Cd LIG
81 4 5 0.000000 19.159000 33.936001 22.770241 # Cd LIG
82 4 5 0.000000 32.206001 11.337000 22.770241 # Cd LIG
83 4 5 0.000000 45.254002 33.936001 22.770241 # Cd LIG
84 4 6 0.000000 5.790000 11.379000 21.732241 # H LIG
85 4 6 0.000000 18.837000 33.978001 21.732241 # H LIG
86 4 6 0.000000 31.885000 11.379000 21.732241 # H LIG
87 4 6 0.000000 44.932999 33.978001 21.732241 # H LIG
88 4 8 0.000000 6.857000 13.431000 21.113241 # Ob LIG
89 4 8 0.000000 19.905001 36.029999 21.113241 # Ob LIG
90 4 8 0.000000 32.952000 13.431000 21.113241 # Ob LIG
91 4 8 0.000000 46.000000 36.029999 21.113241 # Ob LIG
92 4 7 0.000000 8.133000 14.336000 22.723240 # Oa LIG
93 4 7 0.000000 21.180000 36.936001 22.723240 # Oa LIG
94 4 7 0.000000 34.228001 14.336000 22.723240 # Oa LIG
95 4 7 0.000000 47.276001 36.936001 22.723240 # Oa LIG
96 4 10 0.000000 8.790000 16.146999 22.015240 # Zn LIG
97 4 10 0.000000 21.837000 38.745998 22.015240 # Zn LIG
98 4 10 0.000000 34.884998 16.146999 22.015240 # Zn LIG
99 4 10 0.000000 47.932999 38.745998 22.015240 # Zn LIG
100 4 10 0.000000 9.589000 14.447000 17.427240 # Zn LIG
101 4 10 0.000000 22.636000 37.046001 17.427240 # Zn LIG
102 4 10 0.000000 35.683998 14.447000 17.427240 # Zn LIG
103 4 10 0.000000 48.731998 37.046001 17.427240 # Zn LIG
104 4 7 0.000000 8.349000 15.921000 18.135241 # Oa LIG
105 4 7 0.000000 21.396999 38.520000 18.135241 # Oa LIG
106 4 7 0.000000 34.445000 15.921000 18.135241 # Oa LIG
107 4 7 0.000000 47.492001 38.520000 18.135241 # Oa LIG
108 4 7 0.000000 9.613000 14.941000 20.429241 # Oa LIG
109 4 7 0.000000 22.660999 37.540001 20.429241 # Oa LIG
110 4 7 0.000000 35.709000 14.941000 20.429241 # Oa LIG
111 4 7 0.000000 48.756001 37.540001 20.429241 # Oa LIG
112 4 9 0.000000 7.380000 16.413000 20.600241 # Oc LIG
113 4 9 0.000000 20.427999 39.013000 20.600241 # Oc LIG
114 4 9 0.000000 33.476002 16.413000 20.600241 # Oc LIG
115 4 9 0.000000 46.522999 39.013000 20.600241 # Oc LIG
116 4 10 0.000000 8.790000 31.212999 19.721241 # Zn LIG
117 4 10 0.000000 21.837000 8.614000 19.721241 # Zn LIG
118 4 10 0.000000 34.884998 31.212999 19.721241 # Zn LIG
119 4 10 0.000000 47.932999 8.614000 19.721241 # Zn LIG
120 4 10 0.000000 9.589000 29.513000 22.015240 # Zn LIG
121 4 10 0.000000 22.636000 6.914000 22.015240 # Zn LIG
122 4 10 0.000000 35.683998 29.513000 22.015240 # Zn LIG
123 4 10 0.000000 48.731998 6.914000 22.015240 # Zn LIG
124 4 7 0.000000 9.613000 30.007000 18.135241 # Oa LIG
125 4 7 0.000000 22.660999 7.408000 18.135241 # Oa LIG
126 4 7 0.000000 35.709000 30.007000 18.135241 # Oa LIG
127 4 7 0.000000 48.756001 7.408000 18.135241 # Oa LIG
128 4 7 0.000000 8.349000 30.987000 22.723240 # Oa LIG
129 4 7 0.000000 21.396999 8.388000 22.723240 # Oa LIG
130 4 7 0.000000 34.445000 30.987000 22.723240 # Oa LIG
131 4 7 0.000000 47.492001 8.388000 22.723240 # Oa LIG
132 4 7 0.000000 4.698000 21.743999 20.861240 # Oa LIG
133 4 7 0.000000 17.746000 44.342999 20.861240 # Oa LIG
134 4 7 0.000000 30.794001 21.743999 20.861240 # Oa LIG
135 4 7 0.000000 43.841000 44.342999 20.861240 # Oa LIG
136 4 9 0.000000 5.667000 21.252001 18.396240 # Oc LIG
137 4 9 0.000000 18.715000 43.851002 18.396240 # Oc LIG
138 4 9 0.000000 31.763000 21.252001 18.396240 # Oc LIG
139 4 9 0.000000 44.810001 43.851002 18.396240 # Oc LIG
140 4 10 0.000000 4.258000 21.518000 23.863241 # Zn LIG
141 4 10 0.000000 17.306000 44.118000 23.863241 # Zn LIG
142 4 10 0.000000 30.353001 21.518000 23.863241 # Zn LIG
143 4 10 0.000000 43.401001 44.118000 23.863241 # Zn LIG
144 4 10 0.000000 8.790000 1.081000 17.427240 # Zn LIG
145 4 10 0.000000 21.837000 23.680000 17.427240 # Zn LIG
146 4 10 0.000000 34.884998 1.081000 17.427240 # Zn LIG
147 4 10 0.000000 47.932999 23.680000 17.427240 # Zn LIG
148 4 7 0.000000 8.349000 0.855000 20.429241 # Oa LIG
149 4 7 0.000000 21.396999 23.454000 20.429241 # Oa LIG
150 4 7 0.000000 34.445000 0.855000 20.429241 # Oa LIG
151 4 7 0.000000 47.492001 23.454000 20.429241 # Oa LIG
152 4 9 0.000000 7.380000 1.347000 22.894241 # Oc LIG
153 4 9 0.000000 20.427999 23.947001 22.894241 # Oc LIG
154 4 9 0.000000 33.476002 1.347000 22.894241 # Oc LIG
155 4 9 0.000000 46.522999 23.947001 22.894241 # Oc LIG
156 4 9 0.000000 4.857000 39.480000 18.396240 # Oc LIG
157 4 9 0.000000 17.905001 16.881001 18.396240 # Oc LIG
158 4 9 0.000000 30.952999 39.480000 18.396240 # Oc LIG
159 4 9 0.000000 44.000000 16.881001 18.396240 # Oc LIG
160 4 10 0.000000 5.331000 38.126999 23.863241 # Zn LIG
161 4 10 0.000000 18.378000 15.527000 23.863241 # Zn LIG
162 4 10 0.000000 31.426001 38.126999 23.863241 # Zn LIG
163 4 10 0.000000 44.473999 15.527000 23.863241 # Zn LIG
164 4 2 0.000000 5.724000 39.301998 21.282242 # Ca LIG
165 4 2 0.000000 18.771999 16.702999 21.282242 # Ca LIG
166 4 2 0.000000 31.819000 39.301998 21.282242 # Ca LIG
167 4 2 0.000000 44.867001 16.702999 21.282242 # Ca LIG
168 4 3 0.000000 6.104000 40.375999 20.334240 # Cb LIG
169 4 3 0.000000 19.150999 17.777000 20.334240 # Cb LIG
170 4 3 0.000000 32.199001 40.375999 20.334240 # Cb LIG
171 4 3 0.000000 45.247002 17.777000 20.334240 # Cb LIG
172 4 4 0.000000 5.670000 40.403999 18.972240 # Cc LIG
173 4 4 0.000000 18.718000 17.805000 18.972240 # Cc LIG
174 4 4 0.000000 31.764999 40.403999 18.972240 # Cc LIG
175 4 4 0.000000 44.813000 17.805000 18.972240 # Cc LIG
176 4 5 0.000000 6.937000 41.394001 20.814240 # Cd LIG
177 4 5 0.000000 19.983999 18.795000 20.814240 # Cd LIG
178 4 5 0.000000 33.032001 41.394001 20.814240 # Cd LIG
179 4 5 0.000000 46.080002 18.795000 20.814240 # Cd LIG
180 4 6 0.000000 7.258000 41.353001 21.852242 # H LIG
181 4 6 0.000000 20.306000 18.754000 21.852242 # H LIG
182 4 6 0.000000 33.353001 41.353001 21.852242 # H LIG
183 4 6 0.000000 46.401001 18.754000 21.852242 # H LIG
184 4 8 0.000000 6.191000 39.299999 22.470242 # Ob LIG
185 4 8 0.000000 19.238001 16.701000 22.470242 # Ob LIG
186 4 8 0.000000 32.285999 39.299999 22.470242 # Ob LIG
187 4 8 0.000000 45.334000 16.701000 22.470242 # Ob LIG
188 4 7 0.000000 4.915000 38.395000 20.861240 # Oa LIG
189 4 7 0.000000 17.962999 15.796000 20.861240 # Oa LIG
190 4 7 0.000000 31.010000 38.395000 20.861240 # Oa LIG
191 4 7 0.000000 44.057999 15.796000 20.861240 # Oa LIG
192 4 3 0.000000 6.944000 42.487000 18.662241 # Cb LIG
193 4 3 0.000000 19.992001 19.888000 18.662241 # Cb LIG
194 4 3 0.000000 33.039001 42.487000 18.662241 # Cb LIG
195 4 3 0.000000 46.087002 19.888000 18.662241 # Cb LIG
196 4 4 0.000000 7.378000 42.459000 20.024240 # Cc LIG
197 4 4 0.000000 20.424999 19.860001 20.024240 # Cc LIG
198 4 4 0.000000 33.473000 42.459000 20.024240 # Cc LIG
199 4 4 0.000000 46.521000 19.860001 20.024240 # Cc LIG
200 4 5 0.000000 6.111000 41.469002 18.182240 # Cd LIG
201 4 5 0.000000 19.159000 18.870001 18.182240 # Cd LIG
202 4 5 0.000000 32.206001 41.469002 18.182240 # Cd LIG
203 4 5 0.000000 45.254002 18.870001 18.182240 # Cd LIG
204 4 7 0.000000 8.133000 44.469002 18.135241 # Oa LIG
205 4 7 0.000000 21.180000 21.868999 18.135241 # Oa LIG
206 4 7 0.000000 34.228001 44.469002 18.135241 # Oa LIG
207 4 7 0.000000 47.276001 21.868999 18.135241 # Oa LIG
208 4 9 0.000000 8.191000 43.382999 20.600241 # Oc LIG
209 4 9 0.000000 21.238001 20.784000 20.600241 # Oc LIG
210 4 9 0.000000 34.285999 43.382999 20.600241 # Oc LIG
211 4 9 0.000000 47.334000 20.784000 20.600241 # Oc LIG
212 4 10 0.000000 7.717000 44.737000 22.015240 # Zn LIG
213 4 10 0.000000 20.764999 22.138000 22.015240 # Zn LIG
214 4 10 0.000000 33.812000 44.737000 22.015240 # Zn LIG
215 4 10 0.000000 46.860001 22.138000 22.015240 # Zn LIG
216 4 10 0.000000 9.589000 44.578999 19.721241 # Zn LIG
217 4 10 0.000000 22.636000 21.980000 19.721241 # Zn LIG
218 4 10 0.000000 35.683998 44.578999 19.721241 # Zn LIG
219 4 10 0.000000 48.731998 21.980000 19.721241 # Zn LIG
220 4 9 0.000000 5.667000 36.318001 22.984241 # Oc LIG
221 4 9 0.000000 18.715000 13.719000 22.984241 # Oc LIG
222 4 9 0.000000 31.763000 36.318001 22.984241 # Oc LIG
223 4 9 0.000000 44.810001 13.719000 22.984241 # Oc LIG
224 4 2 0.000000 7.324000 43.561001 17.714241 # Ca LIG
225 4 2 0.000000 20.371000 20.962000 17.714241 # Ca LIG
226 4 2 0.000000 33.418999 43.561001 17.714241 # Ca LIG
227 4 2 0.000000 46.466999 20.962000 17.714241 # Ca LIG
228 4 8 0.000000 6.857000 43.563999 23.407242 # Ob LIG
229 4 8 0.000000 19.905001 20.964001 23.407242 # Ob LIG
230 4 8 0.000000 32.952000 43.563999 23.407242 # Ob LIG
231 4 8 0.000000 46.000000 20.964001 23.407242 # Ob LIG
232 4 7 0.000000 9.613000 45.073002 22.723240 # Oa LIG
233 4 7 0.000000 22.660999 22.474001 22.723240 # Oa LIG
234 4 7 0.000000 35.709000 45.073002 22.723240 # Oa LIG
235 4 7 0.000000 48.756001 22.474001 22.723240 # Oa LIG
236 4 10 0.000000 3.459000 38.285000 19.275242 # Zn LIG
237 4 10 0.000000 16.507000 15.685000 19.275242 # Zn LIG
238 4 10 0.000000 29.554001 38.285000 19.275242 # Zn LIG
239 4 10 0.000000 42.602001 15.685000 19.275242 # Zn LIG
240 4 7 0.000000 4.698000 36.810001 18.567242 # Oa LIG
241 4 7 0.000000 17.746000 14.211000 18.567242 # Oa LIG
242 4 7 0.000000 30.794001 36.810001 18.567242 # Oa LIG
243 4 7 0.000000 43.841000 14.211000 18.567242 # Oa LIG
244 4 10 0.000000 4.258000 36.584999 21.569241 # Zn LIG
245 4 10 0.000000 17.306000 13.985000 21.569241 # Zn LIG
246 4 10 0.000000 30.353001 36.584999 21.569241 # Zn LIG
247 4 10 0.000000 43.401001 13.985000 21.569241 # Zn LIG
248 4 7 0.000000 3.434000 37.790001 23.155241 # Oa LIG
249 4 7 0.000000 16.482000 15.191000 23.155241 # Oa LIG
250 4 7 0.000000 29.530001 37.790001 23.155241 # Oa LIG
251 4 7 0.000000 42.577000 15.191000 23.155241 # Oa LIG
252 4 9 0.000000 2.523000 22.131001 22.984241 # Oc LIG
253 4 9 0.000000 15.571000 44.730999 22.984241 # Oc LIG
254 4 9 0.000000 28.618999 22.131001 22.984241 # Oc LIG
255 4 9 0.000000 41.666000 44.730999 22.984241 # Oc LIG
256 4 4 0.000000 1.317000 22.372999 23.559240 # Cc LIG
257 4 4 0.000000 14.364000 44.972000 23.559240 # Cc LIG
258 4 4 0.000000 27.412001 22.372999 23.559240 # Cc LIG
259 4 4 0.000000 40.459999 44.972000 23.559240 # Cc LIG
260 4 2 0.000000 10.803000 44.826000 22.302240 # Ca LIG
261 4 2 0.000000 23.851000 22.226999 22.302240 # Ca LIG
262 4 2 0.000000 36.898998 44.826000 22.302240 # Ca LIG
263 4 2 0.000000 49.945999 22.226999 22.302240 # Ca LIG
264 4 3 0.000000 11.923000 45.034000 23.250240 # Cb LIG
265 4 3 0.000000 24.971001 22.434999 23.250240 # Cb LIG
266 4 3 0.000000 38.019001 45.034000 23.250240 # Cb LIG
267 4 3 0.000000 51.066002 22.434999 23.250240 # Cb LIG
268 4 5 0.000000 0.174000 22.223000 22.770241 # Cd LIG
269 4 5 0.000000 13.222000 44.821999 22.770241 # Cd LIG
270 4 5 0.000000 26.268999 22.223000 22.770241 # Cd LIG
271 4 5 0.000000 39.317001 44.821999 22.770241 # Cd LIG
272 4 6 0.000000 0.299000 21.924000 21.732241 # H LIG
273 4 6 0.000000 13.346000 44.522999 21.732241 # H LIG
274 4 6 0.000000 26.393999 21.924000 21.732241 # H LIG
275 4 6 0.000000 39.442001 44.522999 21.732241 # H LIG
276 4 8 0.000000 11.035000 44.421001 21.113241 # Ob LIG
277 4 8 0.000000 24.083000 21.822001 21.113241 # Ob LIG
278 4 8 0.000000 37.130001 44.421001 21.113241 # Ob LIG
279 4 8 0.000000 50.178001 21.822001 21.113241 # Ob LIG
280 4 4 0.000000 6.061000 35.152000 23.559240 # Cc LIG
281 4 4 0.000000 19.108999 12.553000 23.559240 # Cc LIG
282 4 4 0.000000 32.155998 35.152000 23.559240 # Cc LIG
283 4 4 0.000000 45.203999 12.553000 23.559240 # Cc LIG
284 4 2 0.000000 7.968000 32.140999 22.302240 # Ca LIG
285 4 2 0.000000 21.016001 9.542000 22.302240 # Ca LIG
286 4 2 0.000000 34.063999 32.140999 22.302240 # Ca LIG
287 4 2 0.000000 47.111000 9.542000 22.302240 # Ca LIG
288 4 3 0.000000 7.228000 33.007000 23.250240 # Cb LIG
289 4 3 0.000000 20.275999 10.408000 23.250240 # Cb LIG
290 4 3 0.000000 33.323002 33.007000 23.250240 # Cb LIG
291 4 3 0.000000 46.370998 10.408000 23.250240 # Cb LIG
292 4 5 0.000000 6.763000 34.237000 22.770241 # Cd LIG
293 4 5 0.000000 19.809999 11.638000 22.770241 # Cd LIG
294 4 5 0.000000 32.858002 34.237000 22.770241 # Cd LIG
295 4 5 0.000000 45.905998 11.638000 22.770241 # Cd LIG
296 4 6 0.000000 6.959000 34.494999 21.732241 # H LIG
297 4 6 0.000000 20.007000 11.896000 21.732241 # H LIG
298 4 6 0.000000 33.055000 34.494999 21.732241 # H LIG
299 4 6 0.000000 46.102001 11.896000 21.732241 # H LIG
300 4 8 0.000000 8.203000 32.543999 21.113241 # Ob LIG
301 4 8 0.000000 21.250999 9.945000 21.113241 # Ob LIG
302 4 8 0.000000 34.299000 32.543999 21.113241 # Ob LIG
303 4 8 0.000000 47.346001 9.945000 21.113241 # Ob LIG
304 4 9 0.000000 10.524000 30.600000 20.600241 # Oc LIG
305 4 9 0.000000 23.572001 8.001000 20.600241 # Oc LIG
306 4 9 0.000000 36.619999 30.600000 20.600241 # Oc LIG
307 4 9 0.000000 49.667000 8.001000 20.600241 # Oc LIG
308 4 2 0.000000 5.079000 35.655998 18.988241 # Ca LIG
309 4 2 0.000000 18.127001 13.057000 18.988241 # Ca LIG
310 4 2 0.000000 31.174999 35.655998 18.988241 # Ca LIG
311 4 2 0.000000 44.222000 13.057000 18.988241 # Ca LIG
312 4 3 0.000000 5.820000 34.790001 18.040241 # Cb LIG
313 4 3 0.000000 18.867001 12.191000 18.040241 # Cb LIG
314 4 3 0.000000 31.915001 34.790001 18.040241 # Cb LIG
315 4 3 0.000000 44.963001 12.191000 18.040241 # Cb LIG
316 4 5 0.000000 6.285000 33.560001 18.520241 # Cd LIG
317 4 5 0.000000 19.333000 10.961000 18.520241 # Cd LIG
318 4 5 0.000000 32.380001 33.560001 18.520241 # Cd LIG
319 4 5 0.000000 45.428001 10.961000 18.520241 # Cd LIG
320 4 6 0.000000 6.088000 33.301998 19.558241 # H LIG
321 4 6 0.000000 19.136000 10.703000 19.558241 # H LIG
322 4 6 0.000000 32.183998 33.301998 19.558241 # H LIG
323 4 6 0.000000 45.230999 10.703000 19.558241 # H LIG
324 4 8 0.000000 4.844000 35.252998 20.176241 # Ob LIG
325 4 8 0.000000 17.892000 12.654000 20.176241 # Ob LIG
326 4 8 0.000000 30.940001 35.252998 20.176241 # Ob LIG
327 4 8 0.000000 43.987000 12.654000 20.176241 # Ob LIG
328 4 9 0.000000 2.523000 37.198002 20.690241 # Oc LIG
329 4 9 0.000000 15.571000 14.598000 20.690241 # Oc LIG
330 4 9 0.000000 28.618999 37.198002 20.690241 # Oc LIG
331 4 9 0.000000 41.666000 14.598000 20.690241 # Oc LIG
332 4 8 0.000000 2.013000 38.443001 17.882240 # Ob LIG
333 4 8 0.000000 15.060000 15.843000 17.882240 # Ob LIG
334 4 8 0.000000 28.108000 38.443001 17.882240 # Ob LIG
335 4 8 0.000000 41.155998 15.843000 17.882240 # Ob LIG
336 4 2 0.000000 2.244000 38.036999 23.576241 # Ca LIG
337 4 2 0.000000 15.292000 15.438000 23.576241 # Ca LIG
338 4 2 0.000000 28.340000 38.036999 23.576241 # Ca LIG
339 4 2 0.000000 41.387001 15.438000 23.576241 # Ca LIG
340 4 3 0.000000 1.124000 37.828999 22.628241 # Cb LIG
341 4 3 0.000000 14.172000 15.230000 22.628241 # Cb LIG
342 4 3 0.000000 27.219999 37.828999 22.628241 # Cb LIG
343 4 3 0.000000 40.266998 15.230000 22.628241 # Cb LIG
344 4 4 0.000000 1.317000 37.438999 21.265240 # Cc LIG
345 4 4 0.000000 14.364000 14.840000 21.265240 # Cc LIG
346 4 4 0.000000 27.412001 37.438999 21.265240 # Cc LIG
347 4 4 0.000000 40.459999 14.840000 21.265240 # Cc LIG
348 4 5 0.000000 12.874000 15.442000 23.108240 # Cd LIG
349 4 5 0.000000 25.921000 38.041000 23.108240 # Cd LIG
350 4 5 0.000000 38.969002 15.442000 23.108240 # Cd LIG
351 4 5 0.000000 52.016998 38.041000 23.108240 # Cd LIG
352 4 6 0.000000 12.749000 15.741000 17.264240 # H LIG
353 4 6 0.000000 25.797001 38.341000 17.264240 # H LIG
354 4 6 0.000000 38.844002 15.741000 17.264240 # H LIG
355 4 6 0.000000 51.891998 38.341000 17.264240 # H LIG
356 4 2 0.000000 10.803000 14.694000 20.008240 # Ca LIG
357 4 2 0.000000 23.851000 37.292999 20.008240 # Ca LIG
358 4 2 0.000000 36.898998 14.694000 20.008240 # Ca LIG
359 4 2 0.000000 49.945999 37.292999 20.008240 # Ca LIG
360 4 3 0.000000 11.923000 14.902000 20.956242 # Cb LIG
361 4 3 0.000000 24.971001 37.500999 20.956242 # Cb LIG
362 4 3 0.000000 38.019001 14.902000 20.956242 # Cb LIG
363 4 3 0.000000 51.066002 37.500999 20.956242 # Cb LIG
364 4 4 0.000000 11.731000 15.292000 22.318241 # Cc LIG
365 4 4 0.000000 24.778000 37.890999 22.318241 # Cc LIG
366 4 4 0.000000 37.826000 15.292000 22.318241 # Cc LIG
367 4 4 0.000000 50.874001 37.890999 22.318241 # Cc LIG
368 4 5 0.000000 0.174000 37.289001 20.476242 # Cd LIG
369 4 5 0.000000 13.222000 14.690000 20.476242 # Cd LIG
370 4 5 0.000000 26.268999 37.289001 20.476242 # Cd LIG
371 4 5 0.000000 39.317001 14.690000 20.476242 # Cd LIG
372 4 6 0.000000 0.299000 36.990002 19.438240 # H LIG
373 4 6 0.000000 13.346000 14.391000 19.438240 # H LIG
374 4 6 0.000000 26.393999 36.990002 19.438240 # H LIG
375 4 6 0.000000 39.442001 14.391000 19.438240 # H LIG
376 4 8 0.000000 11.035000 14.289000 18.819241 # Ob LIG
377 4 8 0.000000 24.083000 36.888000 18.819241 # Ob LIG
378 4 8 0.000000 37.130001 14.289000 18.819241 # Ob LIG
379 4 8 0.000000 50.178001 36.888000 18.819241 # Ob LIG
380 4 9 0.000000 10.524000 15.534000 22.894241 # Oc LIG
381 4 9 0.000000 23.572001 38.132999 22.894241 # Oc LIG
382 4 9 0.000000 36.619999 15.534000 22.894241 # Oc LIG
383 4 9 0.000000 49.667000 38.132999 22.894241 # Oc LIG
384 4 8 0.000000 4.844000 5.121000 17.882240 # Ob LIG
385 4 8 0.000000 17.892000 27.719999 17.882240 # Ob LIG
386 4 8 0.000000 30.940001 5.121000 17.882240 # Ob LIG
387 4 8 0.000000 43.987000 27.719999 17.882240 # Ob LIG
388 4 9 0.000000 2.523000 7.065000 18.396240 # Oc LIG
389 4 9 0.000000 15.571000 29.664000 18.396240 # Oc LIG
390 4 9 0.000000 28.618999 7.065000 18.396240 # Oc LIG
391 4 9 0.000000 41.666000 29.664000 18.396240 # Oc LIG
392 4 2 0.000000 5.079000 5.524000 23.576241 # Ca LIG
393 4 2 0.000000 18.127001 28.122999 23.576241 # Ca LIG
394 4 2 0.000000 31.174999 5.524000 23.576241 # Ca LIG
395 4 2 0.000000 44.222000 28.122999 23.576241 # Ca LIG
396 4 3 0.000000 5.820000 4.658000 22.628241 # Cb LIG
397 4 3 0.000000 18.867001 27.257000 22.628241 # Cb LIG
398 4 3 0.000000 31.915001 4.658000 22.628241 # Cb LIG
399 4 3 0.000000 44.963001 27.257000 22.628241 # Cb LIG
400 4 4 0.000000 6.061000 5.020000 21.265240 # Cc LIG
401 4 4 0.000000 19.108999 27.618999 21.265240 # Cc LIG
402 4 4 0.000000 32.155998 5.020000 21.265240 # Cc LIG
403 4 4 0.000000 45.203999 27.618999 21.265240 # Cc LIG
404 4 5 0.000000 6.285000 3.428000 23.108240 # Cd LIG
405 4 5 0.000000 19.333000 26.027000 23.108240 # Cd LIG
406 4 5 0.000000 32.380001 3.428000 23.108240 # Cd LIG
407 4 5 0.000000 45.428001 26.027000 23.108240 # Cd LIG
408 4 6 0.000000 6.088000 3.170000 17.264240 # H LIG
409 4 6 0.000000 19.136000 25.768999 17.264240 # H LIG
410 4 6 0.000000 32.183998 3.170000 17.264240 # H LIG
411 4 6 0.000000 45.230999 25.768999 17.264240 # H LIG
412 4 2 0.000000 7.968000 2.009000 20.008240 # Ca LIG
413 4 2 0.000000 21.016001 24.608000 20.008240 # Ca LIG
414 4 2 0.000000 34.063999 2.009000 20.008240 # Ca LIG
415 4 2 0.000000 47.111000 24.608000 20.008240 # Ca LIG
416 4 3 0.000000 7.228000 2.875000 20.956242 # Cb LIG
417 4 3 0.000000 20.275999 25.474001 20.956242 # Cb LIG
418 4 3 0.000000 33.323002 2.875000 20.956242 # Cb LIG
419 4 3 0.000000 46.370998 25.474001 20.956242 # Cb LIG
420 4 4 0.000000 6.987000 2.513000 22.318241 # Cc LIG
421 4 4 0.000000 20.034000 25.112000 22.318241 # Cc LIG
422 4 4 0.000000 33.082001 2.513000 22.318241 # Cc LIG
423 4 4 0.000000 46.130001 25.112000 22.318241 # Cc LIG
424 4 5 0.000000 6.763000 4.105000 20.476242 # Cd LIG
425 4 5 0.000000 19.809999 26.704000 20.476242 # Cd LIG
426 4 5 0.000000 32.858002 4.105000 20.476242 # Cd LIG
427 4 5 0.000000 45.905998 26.704000 20.476242 # Cd LIG
428 4 6 0.000000 6.959000 4.363000 19.438240 # H LIG
429 4 6 0.000000 20.007000 26.962000 19.438240 # H LIG
430 4 6 0.000000 33.055000 4.363000 19.438240 # H LIG
431 4 6 0.000000 46.102001 26.962000 19.438240 # H LIG
432 4 8 0.000000 8.203000 2.412000 18.819241 # Ob LIG
433 4 8 0.000000 21.250999 25.011000 18.819241 # Ob LIG
434 4 8 0.000000 34.299000 2.412000 18.819241 # Ob LIG
435 4 8 0.000000 47.346001 25.011000 18.819241 # Ob LIG
436 4 2 0.000000 2.244000 7.905000 21.282242 # Ca LIG
437 4 2 0.000000 15.292000 30.504000 21.282242 # Ca LIG
438 4 2 0.000000 28.340000 7.905000 21.282242 # Ca LIG
439 4 2 0.000000 41.387001 30.504000 21.282242 # Ca LIG
440 4 3 0.000000 1.124000 7.697000 20.334240 # Cb LIG
441 4 3 0.000000 14.172000 30.296000 20.334240 # Cb LIG
442 4 3 0.000000 27.219999 7.697000 20.334240 # Cb LIG
443 4 3 0.000000 40.266998 30.296000 20.334240 # Cb LIG
444 4 4 0.000000 1.317000 7.307000 18.972240 # Cc LIG
445 4 4 0.000000 14.364000 29.906000 18.972240 # Cc LIG
446 4 4 0.000000 27.412001 7.307000 18.972240 # Cc LIG
447 4 4 0.000000 40.459999 29.906000 18.972240 # Cc LIG
448 4 5 0.000000 12.874000 30.507999 20.814240 # Cd LIG
449 4 5 0.000000 25.921000 7.909000 20.814240 # Cd LIG
450 4 5 0.000000 38.969002 30.507999 20.814240 # Cd LIG
451 4 5 0.000000 52.016998 7.909000 20.814240 # Cd LIG
452 4 6 0.000000 12.749000 30.808001 21.852242 # H LIG
453 4 6 0.000000 25.797001 8.208000 21.852242 # H LIG
454 4 6 0.000000 38.844002 30.808001 21.852242 # H LIG
455 4 6 0.000000 51.891998 8.208000 21.852242 # H LIG
456 4 8 0.000000 2.013000 8.310000 22.470242 # Ob LIG
457 4 8 0.000000 15.060000 30.910000 22.470242 # Ob LIG
458 4 8 0.000000 28.108000 8.310000 22.470242 # Ob LIG
459 4 8 0.000000 41.155998 30.910000 22.470242 # Ob LIG
460 4 3 0.000000 11.923000 29.968000 18.662241 # Cb LIG
461 4 3 0.000000 24.971001 7.369000 18.662241 # Cb LIG
462 4 3 0.000000 38.019001 29.968000 18.662241 # Cb LIG
463 4 3 0.000000 51.066002 7.369000 18.662241 # Cb LIG
464 4 4 0.000000 11.731000 30.358000 20.024240 # Cc LIG
465 4 4 0.000000 24.778999 7.759000 20.024240 # Cc LIG
466 4 4 0.000000 37.826000 30.358000 20.024240 # Cc LIG
467 4 4 0.000000 50.874001 7.759000 20.024240 # Cc LIG
468 4 5 0.000000 0.174000 7.157000 18.182240 # Cd LIG
469 4 5 0.000000 13.222000 29.756001 18.182240 # Cd LIG
470 4 5 0.000000 26.268999 7.157000 18.182240 # Cd LIG
471 4 5 0.000000 39.317001 29.756001 18.182240 # Cd LIG
472 4 2 0.000000 10.803000 29.760000 17.714241 # Ca LIG
473 4 2 0.000000 23.851000 7.161000 17.714241 # Ca LIG
474 4 2 0.000000 36.898998 29.760000 17.714241 # Ca LIG
475 4 2 0.000000 49.945999 7.161000 17.714241 # Ca LIG
476 4 8 0.000000 11.035000 29.355000 23.407242 # Ob LIG
477 4 8 0.000000 24.083000 6.756000 23.407242 # Ob LIG
478 4 8 0.000000 37.130001 29.355000 23.407242 # Ob LIG
479 4 8 0.000000 50.178001 6.756000 23.407242 # Ob LIG
480 4 2 0.000000 5.079000 20.590000 21.282242 # Ca LIG
481 4 2 0.000000 18.127001 43.188999 21.282242 # Ca LIG
482 4 2 0.000000 31.174999 20.590000 21.282242 # Ca LIG
483 4 2 0.000000 44.222000 43.188999 21.282242 # Ca LIG
484 4 3 0.000000 5.820000 19.724001 20.334240 # Cb LIG
485 4 3 0.000000 18.867001 42.323002 20.334240 # Cb LIG
486 4 3 0.000000 31.915001 19.724001 20.334240 # Cb LIG
487 4 3 0.000000 44.963001 42.323002 20.334240 # Cb LIG
488 4 4 0.000000 6.061000 20.086000 18.972240 # Cc LIG
489 4 4 0.000000 19.108999 42.685001 18.972240 # Cc LIG
490 4 4 0.000000 32.155998 20.086000 18.972240 # Cc LIG
491 4 4 0.000000 45.203999 42.685001 18.972240 # Cc LIG
492 4 5 0.000000 6.285000 18.493999 20.814240 # Cd LIG
493 4 5 0.000000 19.333000 41.092999 20.814240 # Cd LIG
494 4 5 0.000000 32.380001 18.493999 20.814240 # Cd LIG
495 4 5 0.000000 45.428001 41.092999 20.814240 # Cd LIG
496 4 6 0.000000 6.088000 18.236000 21.852242 # H LIG
497 4 6 0.000000 19.136000 40.834999 21.852242 # H LIG
498 4 6 0.000000 32.183998 18.236000 21.852242 # H LIG
499 4 6 0.000000 45.230999 40.834999 21.852242 # H LIG
500 4 8 0.000000 4.844000 20.187000 22.470242 # Ob LIG
501 4 8 0.000000 17.892000 42.785999 22.470242 # Ob LIG
502 4 8 0.000000 30.940001 20.187000 22.470242 # Ob LIG
503 4 8 0.000000 43.987000 42.785999 22.470242 # Ob LIG
504 4 3 0.000000 7.228000 17.941000 18.662241 # Cb LIG
505 4 3 0.000000 20.275999 40.540001 18.662241 # Cb LIG
506 4 3 0.000000 33.323002 17.941000 18.662241 # Cb LIG
507 4 3 0.000000 46.370998 40.540001 18.662241 # Cb LIG
508 4 4 0.000000 6.987000 17.579000 20.024240 # Cc LIG
509 4 4 0.000000 20.034000 40.179001 20.024240 # Cc LIG
510 4 4 0.000000 33.082001 17.579000 20.024240 # Cc LIG
511 4 4 0.000000 46.130001 40.179001 20.024240 # Cc LIG
512 4 5 0.000000 6.763000 19.171000 18.182240 # Cd LIG
513 4 5 0.000000 19.809999 41.771000 18.182240 # Cd LIG
514 4 5 0.000000 32.858002 19.171000 18.182240 # Cd LIG
515 4 5 0.000000 45.905998 41.771000 18.182240 # Cd LIG
516 4 2 0.000000 7.968000 17.075001 17.714241 # Ca LIG
517 4 2 0.000000 21.016001 39.674000 17.714241 # Ca LIG
518 4 2 0.000000 34.063999 17.075001 17.714241 # Ca LIG
519 4 2 0.000000 47.111000 39.674000 17.714241 # Ca LIG
520 4 8 0.000000 8.203000 17.478001 23.407242 # Ob LIG
521 4 8 0.000000 21.250999 40.077000 23.407242 # Ob LIG
522 4 8 0.000000 34.299000 17.478001 23.407242 # Ob LIG
523 4 8 0.000000 47.346001 40.077000 23.407242 # Ob LIG
524 4 10 0.000000 5.331000 23.061001 19.275242 # Zn LIG
525 4 10 0.000000 18.378000 0.461000 19.275242 # Zn LIG
526 4 10 0.000000 31.426001 23.061001 19.275242 # Zn LIG
527 4 10 0.000000 44.473999 0.461000 19.275242 # Zn LIG
528 4 8 0.000000 6.191000 24.233999 17.882240 # Ob LIG
529 4 8 0.000000 19.238001 1.635000 17.882240 # Ob LIG
530 4 8 0.000000 32.285999 24.233999 17.882240 # Ob LIG