LAMMPS data file. CGCMM style. atom_style full generated by VMD/TopoTools v1.5 on Mon Apr 24 10:58:57 PDT 2017
 1314 atoms
 12 bonds
 0 angles
 0 dihedrals
 0 impropers
 11 atom types
 1 bond types
 0 angle types
 0 dihedral types
 0 improper types
 0.439550 26.456750  xlo xhi
 0.332838 45.395937  ylo yhi
 -0.000000 27.315479  zlo zhi

# Pair Coeffs
#
# 1  Ca
# 2  Cb
# 3  Cc
# 4  Cd
# 5  Cg
# 6  H
# 7  Ni
# 8  Oa
# 9  Ob
# 10  Oc
# 11  Og

 Masses

 1 12.011000 # Ca
 2 12.011000 # Cb
 3 12.011000 # Cc
 4 12.011000 # Cd
 5 12.011000 # Cg
 6 1.008000 # H
 7 58.693001 # Ni
 8 15.999000 # Oa
 9 15.999000 # Ob
 10 15.999000 # Oc
 11 15.999000 # Og

 Atoms

1 1 11 -0.325600 26.017300 45.062775 22.806000 # Og 
2 1 5 0.651200 26.017300 45.062775 21.646000 # Cg 
3 1 11 -0.325600 26.017300 45.062775 20.486000 # Og 
4 2 11 -0.325600 26.017300 45.062775 9.149000 # Og 
5 2 5 0.651200 26.017300 45.062775 7.989000 # Cg 
6 2 11 -0.325600 26.017300 45.062775 6.829000 # Og 
7 3 11 -0.325600 26.017300 22.531775 22.806000 # Og 
8 3 5 0.651200 26.017300 22.531775 21.646000 # Cg 
9 3 11 -0.325600 26.017300 22.531775 20.486000 # Og 
10 4 11 -0.325600 26.017300 22.531775 9.149000 # Og 
11 4 5 0.651200 26.017300 22.531775 7.989000 # Cg 
12 4 11 -0.325600 26.017300 22.531775 6.829000 # Og 
13 5 11 -0.325600 13.008301 45.062775 22.806000 # Og 
14 5 5 0.651200 13.008301 45.062775 21.646000 # Cg 
15 5 11 -0.325600 13.008301 45.062775 20.486000 # Og 
16 6 11 -0.325600 13.008301 45.062775 9.149000 # Og 
17 6 5 0.651200 13.008301 45.062775 7.989000 # Cg 
18 6 11 -0.325600 13.008301 45.062775 6.829000 # Og 
19 7 9 -0.696000 23.941000 21.823999 20.945980 # Ob LIG
20 7 9 -0.696000 10.932000 44.355999 20.945980 # Ob LIG
21 7 9 -0.696000 23.941000 6.803000 23.221979 # Ob LIG
22 7 9 -0.696000 10.932000 29.334000 23.221979 # Ob LIG
23 7 10 -0.785000 23.514999 7.995000 20.491980 # Oc LIG
24 7 10 -0.785000 10.506000 30.527000 20.491980 # Oc LIG
25 7 8 -0.789000 22.554001 7.442000 18.022980 # Oa LIG
26 7 8 -0.789000 9.546000 29.973000 18.022980 # Oa LIG
27 7 8 -0.789000 22.554001 22.462999 22.575979 # Oa LIG
28 7 8 -0.789000 9.546000 44.993999 22.575979 # Oa LIG
29 7 8 -0.789000 21.304001 8.301000 22.575979 # Oa LIG
30 7 8 -0.789000 8.295000 30.833000 22.575979 # Oa LIG
31 7 9 -0.696000 21.164000 9.821000 20.945980 # Ob LIG
32 7 9 -0.696000 8.155000 32.353001 20.945980 # Ob LIG
33 7 10 -0.785000 21.184000 20.701000 20.491980 # Oc LIG
34 7 10 -0.785000 8.176000 43.233002 20.491980 # Oc LIG
35 7 8 -0.789000 21.184999 21.809999 18.022980 # Oa LIG
36 7 8 -0.789000 8.176000 44.341000 18.022980 # Oa LIG
37 7 9 -0.696000 19.938000 20.927999 23.221979 # Ob LIG
38 7 9 -0.696000 6.930000 43.459999 23.221979 # Ob LIG
39 7 9 -0.696000 19.087999 16.624001 22.302979 # Ob LIG
40 7 9 -0.696000 6.079000 39.155998 22.302979 # Ob LIG
41 7 10 -0.785000 18.681999 13.676000 22.756979 # Oc LIG
42 7 10 -0.785000 5.673000 36.207001 22.756979 # Oc LIG
43 7 8 -0.789000 17.841000 15.743000 20.672979 # Oa LIG
44 7 8 -0.789000 4.833000 38.275002 20.672979 # Oa LIG
45 7 10 -0.785000 17.841999 16.851000 18.204979 # Oc LIG
46 7 10 -0.785000 4.833000 39.382999 18.204979 # Oc LIG
47 7 10 -0.785000 10.506000 0.485000 18.214979 # Oc LIG
48 7 10 -0.785000 23.514999 23.017000 18.214979 # Oc LIG
49 7 10 -0.785000 10.506000 15.506000 22.767979 # Oc LIG
50 7 10 -0.785000 23.514999 38.036999 22.767979 # Oc LIG
51 7 9 -0.696000 10.932000 14.313000 18.668980 # Ob LIG
52 7 9 -0.696000 23.941000 36.845001 18.668980 # Ob LIG
53 7 9 -0.696000 15.085000 0.708000 20.026979 # Ob LIG
54 7 9 -0.696000 2.076000 23.239000 20.026979 # Ob LIG
55 7 9 -0.696000 15.085000 15.729000 17.750980 # Ob LIG
56 7 9 -0.696000 2.077000 38.259998 17.750980 # Ob LIG
57 7 10 -0.785000 15.511000 14.536000 20.480980 # Oc LIG
58 7 10 -0.785000 2.503000 37.068001 20.480980 # Oc LIG
59 7 8 -0.789000 16.471001 15.090000 22.948978 # Oa LIG
60 7 8 -0.789000 3.463000 37.620998 22.948978 # Oa LIG
61 7 8 -0.789000 16.471001 0.069000 18.396980 # Oa LIG
62 7 8 -0.789000 3.463000 22.601000 18.396980 # Oa LIG
63 7 8 -0.789000 17.722000 14.230000 18.396980 # Oa LIG
64 7 8 -0.789000 4.713000 36.762001 18.396980 # Oa LIG
65 7 9 -0.696000 17.862000 12.710000 20.026979 # Ob LIG
66 7 9 -0.696000 4.853000 35.242001 20.026979 # Ob LIG
67 7 10 -0.785000 17.841000 1.831000 20.480980 # Oc LIG
68 7 10 -0.785000 4.833000 24.362000 20.480980 # Oc LIG
69 7 8 -0.789000 17.841000 0.722000 22.948978 # Oa LIG
70 7 8 -0.789000 4.833000 23.254000 22.948978 # Oa LIG
71 7 9 -0.696000 19.087000 1.603000 17.750980 # Ob LIG
72 7 9 -0.696000 6.079000 24.135000 17.750980 # Ob LIG
73 7 9 -0.696000 19.938000 5.907000 18.668980 # Ob LIG
74 7 9 -0.696000 6.930000 28.438999 18.668980 # Ob LIG
75 7 9 -0.696000 2.076000 8.218000 22.302979 # Ob LIG
76 7 9 -0.696000 15.085000 30.750000 22.302979 # Ob LIG
77 7 10 -0.785000 2.503000 7.026000 18.204979 # Oc LIG
78 7 10 -0.785000 15.511000 29.556999 18.204979 # Oc LIG
79 7 10 -0.785000 2.503000 22.047001 22.756979 # Oc LIG
80 7 10 -0.785000 15.511000 44.577999 22.756979 # Oc LIG
81 7 10 -0.785000 20.344000 8.856000 18.215981 # Oc LIG
82 7 10 -0.785000 7.336000 31.388000 18.215981 # Oc LIG
83 7 8 -0.789000 21.184999 6.789000 20.299980 # Oa LIG
84 7 8 -0.789000 8.176000 29.320000 20.299980 # Oa LIG
85 7 10 -0.785000 21.184000 5.680000 22.767979 # Oc LIG
86 7 10 -0.785000 8.176000 28.212000 22.767979 # Oc LIG
87 7 8 -0.789000 3.463000 7.579000 20.672979 # Oa LIG
88 7 8 -0.789000 16.471001 30.111000 20.672979 # Oa LIG
89 7 8 -0.789000 4.713000 6.720000 22.948978 # Oa LIG
90 7 8 -0.789000 17.722000 29.250999 22.948978 # Oa LIG
91 7 8 -0.789000 4.713000 21.740999 20.672979 # Oa LIG
92 7 8 -0.789000 17.722000 44.271999 20.672979 # Oa LIG
93 7 9 -0.696000 4.853000 5.200000 17.750980 # Ob LIG
94 7 9 -0.696000 17.862000 27.731001 17.750980 # Ob LIG
95 7 9 -0.696000 4.853000 20.221001 22.302979 # Ob LIG
96 7 9 -0.696000 17.862000 42.751999 22.302979 # Ob LIG
97 7 10 -0.785000 4.833000 9.341000 22.756979 # Oc LIG
98 7 10 -0.785000 17.841000 31.872999 22.756979 # Oc LIG
99 7 8 -0.789000 4.833000 8.232000 18.396980 # Oa LIG
100 7 8 -0.789000 17.841000 30.764000 18.396980 # Oa LIG
101 7 10 -0.785000 5.673000 6.165000 20.480980 # Oc LIG
102 7 10 -0.785000 18.681999 28.697001 20.480980 # Oc LIG
103 7 10 -0.785000 5.673000 21.186001 18.204979 # Oc LIG
104 7 10 -0.785000 18.681000 43.717999 18.204979 # Oc LIG
105 7 9 -0.696000 6.079000 9.114000 20.026979 # Ob LIG
106 7 9 -0.696000 19.087000 31.645000 20.026979 # Ob LIG
107 7 9 -0.696000 6.930000 13.418000 20.945980 # Ob LIG
108 7 9 -0.696000 19.938000 35.949001 20.945980 # Ob LIG
109 7 10 -0.785000 7.336000 1.345000 22.767979 # Oc LIG
110 7 10 -0.785000 20.344000 23.877001 22.767979 # Oc LIG
111 7 10 -0.785000 7.336000 16.365999 20.491980 # Oc LIG
112 7 10 -0.785000 20.344000 38.897999 20.491980 # Oc LIG
113 7 8 -0.789000 8.176000 14.299000 22.575979 # Oa LIG
114 7 8 -0.789000 21.184999 36.831001 22.575979 # Oa LIG
115 7 10 -0.785000 8.176000 13.190000 18.214979 # Oc LIG
116 7 10 -0.785000 21.184000 35.722000 18.214979 # Oc LIG
117 7 9 -0.696000 8.155000 2.311000 18.668980 # Ob LIG
118 7 9 -0.696000 21.164000 24.841999 18.668980 # Ob LIG
119 7 9 -0.696000 8.155000 17.332001 23.221979 # Ob LIG
120 7 9 -0.696000 21.164000 39.862999 23.221979 # Ob LIG
121 7 8 -0.789000 8.296000 0.791000 20.299980 # Oa LIG
122 7 8 -0.789000 21.304001 23.322001 20.299980 # Oa LIG
123 7 8 -0.789000 8.295000 15.812000 18.022980 # Oa LIG
124 7 8 -0.789000 21.304001 38.342999 18.022980 # Oa LIG
125 7 8 -0.789000 9.546000 14.952000 20.299980 # Oa LIG
126 7 8 -0.789000 22.554001 37.484001 20.299980 # Oa LIG
127 7 4 -0.173000 25.868000 7.878000 20.672979 # Cd LIG
128 7 4 -0.173000 12.860000 30.409000 20.672979 # Cd LIG
129 7 2 -0.349000 24.879999 7.373000 18.527981 # Cb LIG
130 7 2 -0.349000 11.871000 29.905001 18.527981 # Cb LIG
131 7 2 -0.349000 24.879999 22.393999 23.080978 # Cb LIG
132 7 2 -0.349000 11.871000 44.925999 23.080978 # Cb LIG
133 7 3 0.418000 24.708000 7.749000 19.900980 # Cc LIG
134 7 3 0.418000 11.699000 30.280001 19.900980 # Cc LIG
135 7 1 0.895000 23.745001 22.209999 22.137980 # Ca LIG
136 7 1 0.895000 10.736000 44.741001 22.137980 # Ca LIG
137 7 1 0.895000 23.745001 7.188000 17.585979 # Ca LIG
138 7 1 0.895000 10.736000 29.719999 17.585979 # Ca LIG
139 7 1 0.895000 20.927999 9.459000 22.137980 # Ca LIG
140 7 1 0.895000 7.919000 31.990999 22.137980 # Ca LIG
141 7 3 0.418000 20.374001 19.791000 19.900980 # Cc LIG
142 7 3 0.418000 7.365000 42.323002 19.900980 # Cc LIG
143 7 1 0.895000 20.370001 20.905001 17.585979 # Ca LIG
144 7 1 0.895000 7.361000 43.437000 17.585979 # Ca LIG
145 7 2 -0.349000 20.201000 10.350000 23.080978 # Cb LIG
146 7 2 -0.349000 7.192000 32.881001 23.080978 # Cb LIG
147 7 2 -0.349000 19.962999 19.830000 18.527981 # Cb LIG
148 7 2 -0.349000 6.954000 42.362000 18.527981 # Cb LIG
149 7 4 -0.173000 19.905001 18.722000 20.672979 # Cd LIG
150 7 4 -0.173000 6.897000 41.252998 20.672979 # Cd LIG
151 7 4 -0.173000 19.757000 11.578000 22.575979 # Cd LIG
152 7 4 -0.173000 6.749000 34.110001 22.575979 # Cd LIG
153 7 4 -0.173000 19.120001 18.830999 18.022980 # Cd LIG
154 7 4 -0.173000 6.112000 41.362999 18.022980 # Cd LIG
155 7 2 -0.349000 19.063000 17.723000 20.167980 # Cb LIG
156 7 2 -0.349000 6.055000 40.254002 20.167980 # Cb LIG
157 7 3 0.418000 19.065001 12.519000 23.347980 # Cc LIG
158 7 3 0.418000 6.056000 35.050999 23.347980 # Cc LIG
159 7 1 0.895000 18.656000 16.646999 21.110979 # Ca LIG
160 7 1 0.895000 5.647000 39.179001 21.110979 # Ca LIG
161 7 3 0.418000 18.652000 17.761000 18.795979 # Cc LIG
162 7 3 0.418000 5.643000 40.292999 18.795979 # Cc LIG
163 7 4 -0.173000 0.149000 7.143000 18.022980 # Cd LIG
164 7 4 -0.173000 13.157000 29.674999 18.022980 # Cd LIG
165 7 4 -0.173000 0.149000 22.164000 22.575979 # Cd LIG
166 7 4 -0.173000 13.157000 44.695999 22.575979 # Cd LIG
167 7 2 -0.349000 1.137000 7.648000 20.167980 # Cb LIG
168 7 2 -0.349000 14.146000 30.179001 20.167980 # Cb LIG
169 7 3 0.418000 1.309000 22.292999 23.347980 # Cc LIG
170 7 3 0.418000 14.318000 44.825001 23.347980 # Cc LIG
171 7 3 0.418000 1.309000 7.272000 18.795979 # Cc LIG
172 7 3 0.418000 14.318000 29.804001 18.795979 # Cc LIG
173 7 1 0.895000 10.736000 14.699000 19.861980 # Ca LIG
174 7 1 0.895000 23.745001 37.230000 19.861980 # Ca LIG
175 7 3 0.418000 11.699000 15.259000 22.176979 # Cc LIG
176 7 3 0.418000 24.708000 37.791000 22.176979 # Cc LIG
177 7 3 0.418000 11.699000 0.238000 17.624979 # Cc LIG
178 7 3 0.418000 24.708000 22.770000 17.624979 # Cc LIG
179 7 2 -0.349000 11.871000 14.884000 20.804979 # Cb LIG
180 7 2 -0.349000 24.879999 37.415001 20.804979 # Cb LIG
181 7 4 -0.173000 12.860000 0.367000 18.396980 # Cd LIG
182 7 4 -0.173000 25.868999 22.899000 18.396980 # Cd LIG
183 7 4 -0.173000 12.860000 15.388000 22.949980 # Cd LIG
184 7 4 -0.173000 25.868000 37.919998 22.949980 # Cd LIG
185 7 4 -0.173000 13.157000 14.654000 20.299980 # Cd LIG
186 7 4 -0.173000 0.149000 37.185001 20.299980 # Cd LIG
187 7 2 -0.349000 14.146000 15.158000 22.443979 # Cb LIG
188 7 2 -0.349000 1.137000 37.689999 22.443979 # Cb LIG
189 7 2 -0.349000 14.146000 0.137000 17.891979 # Cb LIG
190 7 2 -0.349000 1.137000 22.669001 17.891979 # Cb LIG
191 7 3 0.418000 14.318000 14.783000 21.071980 # Cc LIG
192 7 3 0.418000 1.309000 37.313999 21.071980 # Cc LIG
193 7 1 0.895000 15.281000 0.322000 18.834980 # Ca LIG
194 7 1 0.895000 2.272000 22.854000 18.834980 # Ca LIG
195 7 1 0.895000 15.281000 15.343000 23.386980 # Ca LIG
196 7 1 0.895000 2.272000 37.875000 23.386980 # Ca LIG
197 7 1 0.895000 18.098000 13.072000 18.833981 # Ca LIG
198 7 1 0.895000 5.089000 35.604000 18.833981 # Ca LIG
199 7 3 0.418000 18.652000 2.740000 21.071980 # Cc LIG
200 7 3 0.418000 5.643000 25.271999 21.071980 # Cc LIG
201 7 1 0.895000 18.656000 1.626000 23.386980 # Ca LIG
202 7 1 0.895000 5.647000 24.158001 23.386980 # Ca LIG
203 7 2 -0.349000 18.825001 12.182000 17.891979 # Cb LIG
204 7 2 -0.349000 5.816000 34.714001 17.891979 # Cb LIG
205 7 2 -0.349000 19.063000 2.701000 22.443979 # Cb LIG
206 7 2 -0.349000 6.055000 25.233000 22.443979 # Cb LIG
207 7 4 -0.173000 19.120001 3.810000 20.299980 # Cd LIG
208 7 4 -0.173000 6.111000 26.341999 20.299980 # Cd LIG
209 7 4 -0.173000 19.268999 10.953000 18.396980 # Cd LIG
210 7 4 -0.173000 6.260000 33.485001 18.396980 # Cd LIG
211 7 4 -0.173000 19.906000 3.700000 22.948978 # Cd LIG
212 7 4 -0.173000 6.897000 26.232000 22.948978 # Cd LIG
213 7 1 0.895000 2.272000 7.833000 21.110979 # Ca LIG
214 7 1 0.895000 15.281000 30.364000 21.110979 # Ca LIG
215 7 2 -0.349000 19.962000 4.809000 20.804979 # Cb LIG
216 7 2 -0.349000 6.954000 27.341000 20.804979 # Cb LIG
217 7 3 0.418000 19.961000 10.013000 17.624979 # Cc LIG
218 7 3 0.418000 6.953000 32.543999 17.624979 # Cc LIG
219 7 1 0.895000 20.370001 5.884000 19.861980 # Ca LIG
220 7 1 0.895000 7.361000 28.416000 19.861980 # Ca LIG
221 7 3 0.418000 20.374001 4.770000 22.176979 # Cc LIG
222 7 3 0.418000 7.366000 27.302000 22.176979 # Cc LIG
223 7 1 0.895000 5.089000 5.562000 23.386980 # Ca LIG
224 7 1 0.895000 18.098000 28.093000 23.386980 # Ca LIG
225 7 1 0.895000 5.089000 20.583000 21.110979 # Ca LIG
226 7 1 0.895000 18.098000 43.115002 21.110979 # Ca LIG
227 7 3 0.418000 5.643000 10.251000 23.347980 # Cc LIG
228 7 3 0.418000 18.652000 32.783001 23.347980 # Cc LIG
229 7 1 0.895000 5.647000 9.137000 18.834980 # Ca LIG
230 7 1 0.895000 18.656000 31.667999 18.834980 # Ca LIG
231 7 2 -0.349000 5.816000 4.671000 22.443979 # Cb LIG
232 7 2 -0.349000 18.825001 27.202999 22.443979 # Cb LIG
233 7 2 -0.349000 5.817000 19.693001 20.167980 # Cb LIG
234 7 2 -0.349000 18.825001 42.223999 20.167980 # Cb LIG
235 7 3 0.418000 6.056000 5.008000 21.071980 # Cc LIG
236 7 3 0.418000 19.065001 27.540001 21.071980 # Cc LIG
237 7 3 0.418000 6.056000 20.028999 18.795979 # Cc LIG
238 7 3 0.418000 19.063999 42.561001 18.795979 # Cc LIG
239 7 2 -0.349000 6.055000 10.212000 17.891979 # Cb LIG
240 7 2 -0.349000 19.063000 32.743000 17.891979 # Cb LIG
241 7 4 -0.173000 6.111000 11.321000 22.575979 # Cd LIG
242 7 4 -0.173000 19.120001 33.852001 22.575979 # Cd LIG
243 7 4 -0.173000 6.260000 3.443000 22.948978 # Cd LIG
244 7 4 -0.173000 19.268999 25.974001 22.948978 # Cd LIG
245 7 4 -0.173000 6.261000 18.464001 20.672979 # Cd LIG
246 7 4 -0.173000 19.268999 40.994999 20.672979 # Cd LIG
247 7 4 -0.173000 6.748000 4.068000 20.299980 # Cd LIG
248 7 4 -0.173000 19.757000 26.599001 20.299980 # Cd LIG
249 7 4 -0.173000 6.748000 19.089001 18.022980 # Cd LIG
250 7 4 -0.173000 19.757000 41.619999 18.022980 # Cd LIG
251 7 4 -0.173000 6.897000 11.211000 18.396980 # Cd LIG
252 7 4 -0.173000 19.906000 33.742001 18.396980 # Cd LIG
253 7 2 -0.349000 6.954000 12.320000 23.080978 # Cb LIG
254 7 2 -0.349000 19.962000 34.851002 23.080978 # Cb LIG
255 7 3 0.418000 6.953000 2.502000 22.176979 # Cc LIG
256 7 3 0.418000 19.961000 25.034000 22.176979 # Cc LIG
257 7 3 0.418000 6.953000 17.523001 19.900980 # Cc LIG
258 7 3 0.418000 19.961000 40.055000 19.900980 # Cc LIG
259 7 2 -0.349000 7.192000 2.839000 20.804979 # Cb LIG
260 7 2 -0.349000 20.201000 25.371000 20.804979 # Cb LIG
261 7 2 -0.349000 7.192000 17.860001 18.527981 # Cb LIG
262 7 2 -0.349000 20.201000 40.390999 18.527981 # Cb LIG
263 7 1 0.895000 7.361000 13.395000 22.137980 # Ca LIG
264 7 1 0.895000 20.370001 35.925999 22.137980 # Ca LIG
265 7 3 0.418000 7.366000 12.281000 17.624979 # Cc LIG
266 7 3 0.418000 20.374001 34.812000 17.624979 # Cc LIG
267 7 1 0.895000 7.919000 1.949000 19.861980 # Ca LIG
268 7 1 0.895000 20.927999 24.480000 19.861980 # Ca LIG
269 7 1 0.895000 7.919000 16.969999 17.585979 # Ca LIG
270 7 1 0.895000 20.927999 39.500999 17.585979 # Ca LIG
271 7 6 0.181000 25.764999 8.173000 21.715981 # H LIG
272 7 6 0.181000 12.756000 30.704000 21.715981 # H LIG
273 7 6 0.181000 20.212999 18.664000 21.715981 # H LIG
274 7 6 0.181000 7.204000 41.195999 21.715981 # H LIG
275 7 6 0.181000 19.961000 11.816000 21.532980 # H LIG
276 7 6 0.181000 6.952000 34.347000 21.532980 # H LIG
277 7 6 0.181000 18.813000 18.889000 23.808979 # H LIG
278 7 6 0.181000 5.805000 41.419998 23.808979 # H LIG
279 7 6 0.181000 0.252000 6.849000 23.808979 # H LIG
280 7 6 0.181000 13.261000 29.379999 23.808979 # H LIG
281 7 6 0.181000 0.252000 21.870001 21.532980 # H LIG
282 7 6 0.181000 13.261000 44.401001 21.532980 # H LIG
283 7 6 0.181000 12.756000 0.662000 19.439980 # H LIG
284 7 6 0.181000 25.764999 23.194000 19.439980 # H LIG
285 7 6 0.181000 12.756000 15.683000 17.163979 # H LIG
286 7 6 0.181000 25.764999 38.215000 17.163979 # H LIG
287 7 6 0.181000 13.261000 14.359000 19.255980 # H LIG
288 7 6 0.181000 0.252000 36.890999 19.255980 # H LIG
289 7 6 0.181000 18.813000 3.868000 19.256979 # H LIG
290 7 6 0.181000 5.804000 26.399000 19.256979 # H LIG
291 7 6 0.181000 19.065001 10.716000 19.439980 # H LIG
292 7 6 0.181000 6.057000 33.248001 19.439980 # H LIG
293 7 6 0.181000 20.212999 3.643000 17.163979 # H LIG
294 7 6 0.181000 7.204000 26.174000 17.163979 # H LIG
295 7 6 0.181000 5.804000 11.378000 21.532980 # H LIG
296 7 6 0.181000 18.813000 33.910000 21.532980 # H LIG
297 7 6 0.181000 6.057000 3.205000 17.163979 # H LIG
298 7 6 0.181000 19.065001 25.737000 17.163979 # H LIG
299 7 6 0.181000 6.057000 18.226999 21.715981 # H LIG
300 7 6 0.181000 19.066000 40.757999 21.715981 # H LIG
301 7 6 0.181000 6.952000 4.305000 19.256979 # H LIG
302 7 6 0.181000 19.959999 26.837000 19.256979 # H LIG
303 7 6 0.181000 6.951000 19.326000 23.808979 # H LIG
304 7 6 0.181000 19.959999 41.856998 23.808979 # H LIG
305 7 6 0.181000 7.204000 11.153000 19.439980 # H LIG
306 7 6 0.181000 20.212999 33.685001 19.439980 # H LIG
307 7 7 1.298000 22.488001 21.886000 19.548981 # Ni LIG
308 7 7 1.298000 9.479000 44.417999 19.548981 # Ni LIG
309 7 7 1.298000 20.719000 22.156000 21.825979 # Ni LIG
310 7 7 1.298000 7.710000 44.687000 21.825979 # Ni LIG
311 7 7 1.298000 8.828000 1.021000 17.272980 # Ni LIG
312 7 7 1.298000 21.837000 23.552999 17.272980 # Ni LIG
313 7 7 1.298000 16.538000 0.645000 21.423981 # Ni LIG
314 7 7 1.298000 3.529000 23.177000 21.423981 # Ni LIG
315 7 7 1.298000 18.306999 0.376000 19.147980 # Ni LIG
316 7 7 1.298000 5.299000 22.908001 19.147980 # Ni LIG
317 7 7 1.298000 4.181000 21.510000 23.699980 # Ni LIG
318 7 7 1.298000 17.188999 44.042000 23.699980 # Ni LIG
319 7 7 1.298000 22.488001 6.865000 21.824980 # Ni LIG
320 7 7 1.298000 9.479000 29.396999 21.824980 # Ni LIG
321 7 7 1.298000 21.837000 8.532000 19.548981 # Ni LIG
322 7 7 1.298000 8.828000 31.063000 19.548981 # Ni LIG
323 7 7 1.298000 20.718000 7.135000 17.272980 # Ni LIG
324 7 7 1.298000 7.710000 29.666000 17.272980 # Ni LIG
325 7 7 1.298000 3.529000 8.156000 23.699980 # Ni LIG
326 7 7 1.298000 16.538000 30.688000 23.699980 # Ni LIG
327 7 7 1.298000 4.180000 6.489000 19.147980 # Ni LIG
328 7 7 1.298000 17.188999 29.021000 19.147980 # Ni LIG
329 7 7 1.298000 5.299000 7.886000 21.423981 # Ni LIG
330 7 7 1.298000 18.306999 30.417999 21.423981 # Ni LIG
331 7 7 1.298000 7.710000 14.645000 19.548981 # Ni LIG
332 7 7 1.298000 20.719000 37.176998 19.548981 # Ni LIG
333 7 7 1.298000 8.828000 16.042000 21.824980 # Ni LIG
334 7 7 1.298000 21.837000 38.574001 21.824980 # Ni LIG
335 7 7 1.298000 9.479000 14.375000 17.272980 # Ni LIG
336 7 7 1.298000 22.488001 36.907001 17.272980 # Ni LIG
337 7 7 1.298000 18.306999 15.397000 23.699980 # Ni LIG
338 7 7 1.298000 5.299000 37.929001 23.699980 # Ni LIG
339 7 7 1.298000 16.538000 15.666000 19.146980 # Ni LIG
340 7 7 1.298000 3.529000 38.198002 19.146980 # Ni LIG
341 7 7 1.298000 17.188999 14.000000 21.423981 # Ni LIG
342 7 7 1.298000 4.180000 36.530998 21.423981 # Ni LIG
343 7 9 -0.696000 23.941000 21.823999 0.459500 # Ob LIG
344 7 9 -0.696000 10.932000 44.355999 0.459500 # Ob LIG
345 7 9 -0.696000 23.941000 6.803000 2.735500 # Ob LIG
346 7 9 -0.696000 10.932000 29.334000 2.735500 # Ob LIG
347 7 10 -0.785000 23.514999 7.995000 0.005500 # Oc LIG
348 7 10 -0.785000 10.506000 30.527000 0.005500 # Oc LIG
349 7 8 -0.789000 22.554001 7.442000 24.851978 # Oa LIG
350 7 8 -0.789000 9.546000 29.973000 24.851978 # Oa LIG
351 7 8 -0.789000 22.554001 22.462999 2.089500 # Oa LIG
352 7 8 -0.789000 9.546000 44.993999 2.089500 # Oa LIG
353 7 8 -0.789000 21.304001 8.301000 2.089500 # Oa LIG
354 7 8 -0.789000 8.295000 30.833000 2.089500 # Oa LIG
355 7 9 -0.696000 21.164000 9.821000 0.459500 # Ob LIG
356 7 9 -0.696000 8.155000 32.353001 0.459500 # Ob LIG
357 7 10 -0.785000 21.184000 20.701000 0.005500 # Oc LIG
358 7 10 -0.785000 8.176000 43.233002 0.005500 # Oc LIG
359 7 8 -0.789000 21.184999 21.809999 24.851978 # Oa LIG
360 7 8 -0.789000 8.176000 44.341000 24.851978 # Oa LIG
361 7 9 -0.696000 19.938000 20.927999 2.735500 # Ob LIG
362 7 9 -0.696000 6.930000 43.459999 2.735500 # Ob LIG
363 7 9 -0.696000 19.087999 16.624001 1.816500 # Ob LIG
364 7 9 -0.696000 6.079000 39.155998 1.816500 # Ob LIG
365 7 10 -0.785000 18.681999 13.676000 2.270500 # Oc LIG
366 7 10 -0.785000 5.673000 36.207001 2.270500 # Oc LIG
367 7 8 -0.789000 17.841000 15.743000 0.186500 # Oa LIG
368 7 8 -0.789000 4.833000 38.275002 0.186500 # Oa LIG
369 7 10 -0.785000 17.841999 16.851000 25.033979 # Oc LIG
370 7 10 -0.785000 4.833000 39.382999 25.033979 # Oc LIG
371 7 10 -0.785000 10.506000 0.485000 25.043980 # Oc LIG
372 7 10 -0.785000 23.514999 23.017000 25.043980 # Oc LIG
373 7 10 -0.785000 10.506000 15.506000 2.281500 # Oc LIG
374 7 10 -0.785000 23.514999 38.036999 2.281500 # Oc LIG
375 7 9 -0.696000 10.932000 14.313000 25.497980 # Ob LIG
376 7 9 -0.696000 23.941000 36.845001 25.497980 # Ob LIG
377 7 9 -0.696000 15.085000 0.708000 26.855980 # Ob LIG
378 7 9 -0.696000 2.076000 23.239000 26.855980 # Ob LIG
379 7 9 -0.696000 15.085000 15.729000 24.579979 # Ob LIG
380 7 9 -0.696000 2.077000 38.259998 24.579979 # Ob LIG
381 7 10 -0.785000 15.511000 14.536000 27.309978 # Oc LIG
382 7 10 -0.785000 2.503000 37.068001 27.309978 # Oc LIG
383 7 8 -0.789000 16.471001 15.090000 2.462500 # Oa LIG
384 7 8 -0.789000 3.463000 37.620998 2.462500 # Oa LIG
385 7 8 -0.789000 16.471001 0.069000 25.225979 # Oa LIG
386 7 8 -0.789000 3.463000 22.601000 25.225979 # Oa LIG
387 7 8 -0.789000 17.722000 14.230000 25.225979 # Oa LIG
388 7 8 -0.789000 4.713000 36.762001 25.225979 # Oa LIG
389 7 9 -0.696000 17.862000 12.710000 26.855980 # Ob LIG
390 7 9 -0.696000 4.853000 35.242001 26.855980 # Ob LIG
391 7 10 -0.785000 17.841000 1.831000 27.309978 # Oc LIG
392 7 10 -0.785000 4.833000 24.362000 27.309978 # Oc LIG
393 7 8 -0.789000 17.841000 0.722000 2.462500 # Oa LIG
394 7 8 -0.789000 4.833000 23.254000 2.462500 # Oa LIG
395 7 9 -0.696000 19.087000 1.603000 24.579979 # Ob LIG
396 7 9 -0.696000 6.079000 24.135000 24.579979 # Ob LIG
397 7 9 -0.696000 19.938000 5.907000 25.497980 # Ob LIG
398 7 9 -0.696000 6.930000 28.438999 25.497980 # Ob LIG
399 7 9 -0.696000 2.076000 8.218000 1.816500 # Ob LIG
400 7 9 -0.696000 15.085000 30.750000 1.816500 # Ob LIG
401 7 10 -0.785000 2.503000 7.026000 25.033979 # Oc LIG
402 7 10 -0.785000 15.511000 29.556999 25.033979 # Oc LIG
403 7 10 -0.785000 2.503000 22.047001 2.270500 # Oc LIG
404 7 10 -0.785000 15.511000 44.577999 2.270500 # Oc LIG
405 7 10 -0.785000 20.344000 8.856000 25.044979 # Oc LIG
406 7 10 -0.785000 7.336000 31.388000 25.044979 # Oc LIG
407 7 8 -0.789000 21.184999 6.789000 27.128979 # Oa LIG
408 7 8 -0.789000 8.176000 29.320000 27.128979 # Oa LIG
409 7 10 -0.785000 21.184000 5.680000 2.281500 # Oc LIG
410 7 10 -0.785000 8.176000 28.212000 2.281500 # Oc LIG
411 7 8 -0.789000 3.463000 7.579000 0.186500 # Oa LIG
412 7 8 -0.789000 16.471001 30.111000 0.186500 # Oa LIG
413 7 8 -0.789000 4.713000 6.720000 2.462500 # Oa LIG
414 7 8 -0.789000 17.722000 29.250999 2.462500 # Oa LIG
415 7 8 -0.789000 4.713000 21.740999 0.186500 # Oa LIG
416 7 8 -0.789000 17.722000 44.271999 0.186500 # Oa LIG
417 7 9 -0.696000 4.853000 5.200000 24.579979 # Ob LIG
418 7 9 -0.696000 17.862000 27.731001 24.579979 # Ob LIG
419 7 9 -0.696000 4.853000 20.221001 1.816500 # Ob LIG
420 7 9 -0.696000 17.862000 42.751999 1.816500 # Ob LIG
421 7 10 -0.785000 4.833000 9.341000 2.270500 # Oc LIG
422 7 10 -0.785000 17.841000 31.872999 2.270500 # Oc LIG
423 7 8 -0.789000 4.833000 8.232000 25.225979 # Oa LIG
424 7 8 -0.789000 17.841000 30.764000 25.225979 # Oa LIG
425 7 10 -0.785000 5.673000 6.165000 27.309978 # Oc LIG
426 7 10 -0.785000 18.681999 28.697001 27.309978 # Oc LIG
427 7 10 -0.785000 5.673000 21.186001 25.033979 # Oc LIG
428 7 10 -0.785000 18.681000 43.717999 25.033979 # Oc LIG
429 7 9 -0.696000 6.079000 9.114000 26.855980 # Ob LIG
430 7 9 -0.696000 19.087000 31.645000 26.855980 # Ob LIG
431 7 9 -0.696000 6.930000 13.418000 0.459500 # Ob LIG
432 7 9 -0.696000 19.938000 35.949001 0.459500 # Ob LIG
433 7 10 -0.785000 7.336000 1.345000 2.281500 # Oc LIG
434 7 10 -0.785000 20.344000 23.877001 2.281500 # Oc LIG
435 7 10 -0.785000 7.336000 16.365999 0.005500 # Oc LIG
436 7 10 -0.785000 20.344000 38.897999 0.005500 # Oc LIG
437 7 8 -0.789000 8.176000 14.299000 2.089500 # Oa LIG
438 7 8 -0.789000 21.184999 36.831001 2.089500 # Oa LIG
439 7 10 -0.785000 8.176000 13.190000 25.043980 # Oc LIG
440 7 10 -0.785000 21.184000 35.722000 25.043980 # Oc LIG
441 7 9 -0.696000 8.155000 2.311000 25.497980 # Ob LIG
442 7 9 -0.696000 21.164000 24.841999 25.497980 # Ob LIG
443 7 9 -0.696000 8.155000 17.332001 2.735500 # Ob LIG
444 7 9 -0.696000 21.164000 39.862999 2.735500 # Ob LIG
445 7 8 -0.789000 8.296000 0.791000 27.128979 # Oa LIG
446 7 8 -0.789000 21.304001 23.322001 27.128979 # Oa LIG
447 7 8 -0.789000 8.295000 15.812000 24.851978 # Oa LIG
448 7 8 -0.789000 21.304001 38.342999 24.851978 # Oa LIG
449 7 8 -0.789000 9.546000 14.952000 27.128979 # Oa LIG
450 7 8 -0.789000 22.554001 37.484001 27.128979 # Oa LIG
451 7 4 -0.173000 25.868000 7.878000 0.186500 # Cd LIG
452 7 4 -0.173000 12.860000 30.409000 0.186500 # Cd LIG
453 7 2 -0.349000 24.879999 7.373000 25.356979 # Cb LIG
454 7 2 -0.349000 11.871000 29.905001 25.356979 # Cb LIG
455 7 2 -0.349000 24.879999 22.393999 2.594500 # Cb LIG
456 7 2 -0.349000 11.871000 44.925999 2.594500 # Cb LIG
457 7 3 0.418000 24.708000 7.749000 26.729979 # Cc LIG
458 7 3 0.418000 11.699000 30.280001 26.729979 # Cc LIG
459 7 1 0.895000 23.745001 22.209999 1.651500 # Ca LIG
460 7 1 0.895000 10.736000 44.741001 1.651500 # Ca LIG
461 7 1 0.895000 23.745001 7.188000 24.414980 # Ca LIG
462 7 1 0.895000 10.736000 29.719999 24.414980 # Ca LIG
463 7 1 0.895000 20.927999 9.459000 1.651500 # Ca LIG
464 7 1 0.895000 7.919000 31.990999 1.651500 # Ca LIG
465 7 3 0.418000 20.374001 19.791000 26.729979 # Cc LIG
466 7 3 0.418000 7.365000 42.323002 26.729979 # Cc LIG
467 7 1 0.895000 20.370001 20.905001 24.414980 # Ca LIG
468 7 1 0.895000 7.361000 43.437000 24.414980 # Ca LIG
469 7 2 -0.349000 20.201000 10.350000 2.594500 # Cb LIG
470 7 2 -0.349000 7.192000 32.881001 2.594500 # Cb LIG
471 7 2 -0.349000 19.962999 19.830000 25.356979 # Cb LIG
472 7 2 -0.349000 6.954000 42.362000 25.356979 # Cb LIG
473 7 4 -0.173000 19.905001 18.722000 0.186500 # Cd LIG
474 7 4 -0.173000 6.897000 41.252998 0.186500 # Cd LIG
475 7 4 -0.173000 19.757000 11.578000 2.089500 # Cd LIG
476 7 4 -0.173000 6.749000 34.110001 2.089500 # Cd LIG
477 7 4 -0.173000 19.120001 18.830999 24.851978 # Cd LIG
478 7 4 -0.173000 6.112000 41.362999 24.851978 # Cd LIG
479 7 2 -0.349000 19.063000 17.723000 26.996979 # Cb LIG
480 7 2 -0.349000 6.055000 40.254002 26.996979 # Cb LIG
481 7 3 0.418000 19.065001 12.519000 2.861500 # Cc LIG
482 7 3 0.418000 6.056000 35.050999 2.861500 # Cc LIG
483 7 1 0.895000 18.656000 16.646999 0.624500 # Ca LIG
484 7 1 0.895000 5.647000 39.179001 0.624500 # Ca LIG
485 7 3 0.418000 18.652000 17.761000 25.624979 # Cc LIG
486 7 3 0.418000 5.643000 40.292999 25.624979 # Cc LIG
487 7 4 -0.173000 0.149000 7.143000 24.851978 # Cd LIG
488 7 4 -0.173000 13.157000 29.674999 24.851978 # Cd LIG
489 7 4 -0.173000 0.149000 22.164000 2.089500 # Cd LIG
490 7 4 -0.173000 13.157000 44.695999 2.089500 # Cd LIG
491 7 2 -0.349000 1.137000 7.648000 26.996979 # Cb LIG
492 7 2 -0.349000 14.146000 30.179001 26.996979 # Cb LIG
493 7 3 0.418000 1.309000 22.292999 2.861500 # Cc LIG
494 7 3 0.418000 14.318000 44.825001 2.861500 # Cc LIG
495 7 3 0.418000 1.309000 7.272000 25.624979 # Cc LIG
496 7 3 0.418000 14.318000 29.804001 25.624979 # Cc LIG
497 7 1 0.895000 10.736000 14.699000 26.690979 # Ca LIG
498 7 1 0.895000 23.745001 37.230000 26.690979 # Ca LIG
499 7 3 0.418000 11.699000 15.259000 1.690500 # Cc LIG
500 7 3 0.418000 24.708000 37.791000 1.690500 # Cc LIG
501 7 3 0.418000 11.699000 0.238000 24.453979 # Cc LIG
502 7 3 0.418000 24.708000 22.770000 24.453979 # Cc LIG
503 7 2 -0.349000 11.871000 14.884000 0.318500 # Cb LIG
504 7 2 -0.349000 24.879999 37.415001 0.318500 # Cb LIG
505 7 4 -0.173000 12.860000 0.367000 25.225979 # Cd LIG
506 7 4 -0.173000 25.868999 22.899000 25.225979 # Cd LIG
507 7 4 -0.173000 12.860000 15.388000 2.463500 # Cd LIG
508 7 4 -0.173000 25.868000 37.919998 2.463500 # Cd LIG
509 7 4 -0.173000 13.157000 14.654000 27.128979 # Cd LIG
510 7 4 -0.173000 0.149000 37.185001 27.128979 # Cd LIG
511 7 2 -0.349000 14.146000 15.158000 1.957500 # Cb LIG
512 7 2 -0.349000 1.137000 37.689999 1.957500 # Cb LIG
513 7 2 -0.349000 14.146000 0.137000 24.720980 # Cb LIG
514 7 2 -0.349000 1.137000 22.669001 24.720980 # Cb LIG
515 7 3 0.418000 14.318000 14.783000 0.585500 # Cc LIG
516 7 3 0.418000 1.309000 37.313999 0.585500 # Cc LIG
517 7 1 0.895000 15.281000 0.322000 25.663979 # Ca LIG
518 7 1 0.895000 2.272000 22.854000 25.663979 # Ca LIG
519 7 1 0.895000 15.281000 15.343000 2.900500 # Ca LIG
520 7 1 0.895000 2.272000 37.875000 2.900500 # Ca LIG
521 7 1 0.895000 18.098000 13.072000 25.662979 # Ca LIG
522 7 1 0.895000 5.089000 35.604000 25.662979 # Ca LIG
523 7 3 0.418000 18.652000 2.740000 0.585500 # Cc LIG
524 7 3 0.418000 5.643000 25.271999 0.585500 # Cc LIG
525 7 1 0.895000 18.656000 1.626000 2.900500 # Ca LIG
526 7 1 0.895000 5.647000 24.158001 2.900500 # Ca LIG
527 7 2 -0.349000 18.825001 12.182000 24.720980 # Cb LIG