LAMMPS data file. CGCMM style. atom_style full generated by VMD/TopoTools v1.5 on Sat Apr 22 10:15:06 PDT 2017
 1459 atoms
 0 bonds
 0 angles
 0 dihedrals
 0 impropers
 10 atom types
 0 bond types
 0 angle types
 0 dihedral types
 0 improper types
 0.439550 26.456750  xlo xhi
 0.332838 45.395937  ylo yhi
 -0.333239 26.982240  zlo zhi

# Pair Coeffs
#
# 1  CH4
# 2  Ca
# 3  Cb
# 4  Cc
# 5  Cd
# 6  H
# 7  Ni
# 8  Oa
# 9  Ob
# 10  Oc

 Masses

 1 16.040001 # CH4
 2 12.011000 # Ca
 3 12.011000 # Cb
 4 12.011000 # Cc
 5 12.011000 # Cd
 6 1.008000 # H
 7 58.693001 # Ni
 8 15.999000 # Oa
 9 15.999000 # Ob
 10 15.999000 # Oc

 Atoms

1 1 1 0.000000 26.017300 45.062775 13.990001 # CH4 
2 2 1 0.000000 26.017300 45.062775 14.657001 # CH4 
3 3 1 0.000000 26.017300 45.062775 15.323001 # CH4 
4 4 1 0.000000 26.017300 45.062775 15.989000 # CH4 
5 5 1 0.000000 26.017300 45.062775 16.655001 # CH4 
6 6 1 0.000000 26.017300 45.062775 17.322001 # CH4 
7 7 1 0.000000 26.017300 45.062775 17.988001 # CH4 
8 8 1 0.000000 26.017300 45.062775 18.653999 # CH4 
9 9 1 0.000000 26.017300 45.062775 19.320000 # CH4 
10 10 1 0.000000 26.017300 45.062775 19.986000 # CH4 
11 11 1 0.000000 26.017300 45.062775 20.653000 # CH4 
12 12 1 0.000000 26.017300 45.062775 21.319000 # CH4 
13 13 1 0.000000 26.017300 45.062775 21.985001 # CH4 
14 14 1 0.000000 26.017300 45.062775 22.651001 # CH4 
15 15 1 0.000000 26.017300 45.062775 23.318001 # CH4 
16 16 1 0.000000 26.017300 45.062775 23.984001 # CH4 
17 17 1 0.000000 26.017300 45.062775 24.650002 # CH4 
18 18 1 0.000000 26.017300 45.062775 25.316000 # CH4 
19 19 1 0.000000 26.017300 45.062775 25.983000 # CH4 
20 20 1 0.000000 26.017300 45.062775 26.649000 # CH4 
21 21 1 0.000000 26.017300 45.062775 0.000000 # CH4 
22 22 1 0.000000 26.017300 45.062775 0.666000 # CH4 
23 23 1 0.000000 26.017300 45.062775 1.332000 # CH4 
24 24 1 0.000000 26.017300 45.062775 1.999000 # CH4 
25 25 1 0.000000 26.017300 45.062775 2.665000 # CH4 
26 26 1 0.000000 26.017300 45.062775 3.331000 # CH4 
27 27 1 0.000000 26.017300 45.062775 3.997000 # CH4 
28 28 1 0.000000 26.017300 45.062775 4.664000 # CH4 
29 29 1 0.000000 26.017300 45.062775 5.330000 # CH4 
30 30 1 0.000000 26.017300 45.062775 5.996000 # CH4 
31 31 1 0.000000 26.017300 45.062775 6.662000 # CH4 
32 32 1 0.000000 26.017300 45.062775 7.329000 # CH4 
33 33 1 0.000000 26.017300 45.062775 7.995000 # CH4 
34 34 1 0.000000 26.017300 45.062775 8.661000 # CH4 
35 35 1 0.000000 26.017300 45.062775 9.327000 # CH4 
36 36 1 0.000000 26.017300 45.062775 9.993000 # CH4 
37 37 1 0.000000 26.017300 45.062775 10.660000 # CH4 
38 38 1 0.000000 26.017300 45.062775 11.326000 # CH4 
39 39 1 0.000000 26.017300 45.062775 11.992000 # CH4 
40 40 1 0.000000 26.017300 45.062775 12.658000 # CH4 
41 41 1 0.000000 26.017300 45.062775 13.325000 # CH4 
42 42 1 0.000000 26.017300 22.531775 13.990001 # CH4 
43 43 1 0.000000 26.017300 22.531775 14.657001 # CH4 
44 44 1 0.000000 26.017300 22.531775 15.323001 # CH4 
45 45 1 0.000000 26.017300 22.531775 15.989000 # CH4 
46 46 1 0.000000 26.017300 22.531775 16.655001 # CH4 
47 47 1 0.000000 26.017300 22.531775 17.322001 # CH4 
48 48 1 0.000000 26.017300 22.531775 17.988001 # CH4 
49 49 1 0.000000 26.017300 22.531775 18.653999 # CH4 
50 50 1 0.000000 26.017300 22.531775 19.320000 # CH4 
51 51 1 0.000000 26.017300 22.531775 19.986000 # CH4 
52 52 1 0.000000 26.017300 22.531775 20.653000 # CH4 
53 53 1 0.000000 26.017300 22.531775 21.319000 # CH4 
54 54 1 0.000000 26.017300 22.531775 21.985001 # CH4 
55 55 1 0.000000 26.017300 22.531775 22.651001 # CH4 
56 56 1 0.000000 26.017300 22.531775 23.318001 # CH4 
57 57 1 0.000000 26.017300 22.531775 23.984001 # CH4 
58 58 1 0.000000 26.017300 22.531775 24.650002 # CH4 
59 59 1 0.000000 26.017300 22.531775 25.316000 # CH4 
60 60 1 0.000000 26.017300 22.531775 25.983000 # CH4 
61 61 1 0.000000 26.017300 22.531775 26.649000 # CH4 
62 62 1 0.000000 26.017300 22.531775 0.000000 # CH4 
63 63 1 0.000000 26.017300 22.531775 0.666000 # CH4 
64 64 1 0.000000 26.017300 22.531775 1.332000 # CH4 
65 65 1 0.000000 26.017300 22.531775 1.999000 # CH4 
66 66 1 0.000000 26.017300 22.531775 2.665000 # CH4 
67 67 1 0.000000 26.017300 22.531775 3.331000 # CH4 
68 68 1 0.000000 26.017300 22.531775 3.997000 # CH4 
69 69 1 0.000000 26.017300 22.531775 4.664000 # CH4 
70 70 1 0.000000 26.017300 22.531775 5.330000 # CH4 
71 71 1 0.000000 26.017300 22.531775 5.996000 # CH4 
72 72 1 0.000000 26.017300 22.531775 6.662000 # CH4 
73 73 1 0.000000 26.017300 22.531775 7.329000 # CH4 
74 74 1 0.000000 26.017300 22.531775 7.995000 # CH4 
75 75 1 0.000000 26.017300 22.531775 8.661000 # CH4 
76 76 1 0.000000 26.017300 22.531775 9.327000 # CH4 
77 77 1 0.000000 26.017300 22.531775 9.993000 # CH4 
78 78 1 0.000000 26.017300 22.531775 10.660000 # CH4 
79 79 1 0.000000 26.017300 22.531775 11.326000 # CH4 
80 80 1 0.000000 26.017300 22.531775 11.992000 # CH4 
81 81 1 0.000000 26.017300 22.531775 12.658000 # CH4 
82 82 1 0.000000 26.017300 22.531775 13.325000 # CH4 
83 83 1 0.000000 13.008301 45.062775 13.990001 # CH4 
84 84 1 0.000000 13.008301 45.062775 14.657001 # CH4 
85 85 1 0.000000 13.008301 45.062775 15.323001 # CH4 
86 86 1 0.000000 13.008301 45.062775 15.989000 # CH4 
87 87 1 0.000000 13.008301 45.062775 16.655001 # CH4 
88 88 1 0.000000 13.008301 45.062775 17.322001 # CH4 
89 89 1 0.000000 13.008301 45.062775 17.988001 # CH4 
90 90 1 0.000000 13.008301 45.062775 18.653999 # CH4 
91 91 1 0.000000 13.008301 45.062775 19.320000 # CH4 
92 92 1 0.000000 13.008301 45.062775 19.986000 # CH4 
93 93 1 0.000000 13.008301 45.062775 20.653000 # CH4 
94 94 1 0.000000 13.008301 45.062775 21.319000 # CH4 
95 95 1 0.000000 13.008301 45.062775 21.985001 # CH4 
96 96 1 0.000000 13.008301 45.062775 22.651001 # CH4 
97 97 1 0.000000 13.008301 45.062775 23.318001 # CH4 
98 98 1 0.000000 13.008301 45.062775 23.984001 # CH4 
99 99 1 0.000000 13.008301 45.062775 24.650002 # CH4 
100 100 1 0.000000 13.008301 45.062775 25.316000 # CH4 
101 101 1 0.000000 13.008301 45.062775 25.983000 # CH4 
102 102 1 0.000000 13.008301 45.062775 26.649000 # CH4 
103 103 1 0.000000 13.008301 45.062775 0.000000 # CH4 
104 104 1 0.000000 13.008301 45.062775 0.666000 # CH4 
105 105 1 0.000000 13.008301 45.062775 1.332000 # CH4 
106 106 1 0.000000 13.008301 45.062775 1.999000 # CH4 
107 107 1 0.000000 13.008301 45.062775 2.665000 # CH4 
108 108 1 0.000000 13.008301 45.062775 3.331000 # CH4 
109 109 1 0.000000 13.008301 45.062775 3.997000 # CH4 
110 110 1 0.000000 13.008301 45.062775 4.664000 # CH4 
111 111 1 0.000000 13.008301 45.062775 5.330000 # CH4 
112 112 1 0.000000 13.008301 45.062775 5.996000 # CH4 
113 113 1 0.000000 13.008301 45.062775 6.662000 # CH4 
114 114 1 0.000000 13.008301 45.062775 7.329000 # CH4 
115 115 1 0.000000 13.008301 45.062775 7.995000 # CH4 
116 116 1 0.000000 13.008301 45.062775 8.661000 # CH4 
117 117 1 0.000000 13.008301 45.062775 9.327000 # CH4 
118 118 1 0.000000 13.008301 45.062775 9.993000 # CH4 
119 119 1 0.000000 13.008301 45.062775 10.660000 # CH4 
120 120 1 0.000000 13.008301 45.062775 11.326000 # CH4 
121 121 1 0.000000 13.008301 45.062775 11.992000 # CH4 
122 122 1 0.000000 13.008301 45.062775 12.658000 # CH4 
123 123 1 0.000000 13.008301 45.062775 13.325000 # CH4 
124 124 1 0.000000 13.008301 22.531775 13.990001 # CH4 
125 125 1 0.000000 13.008301 22.531775 14.657001 # CH4 
126 126 1 0.000000 13.008301 22.531775 15.323001 # CH4 
127 127 1 0.000000 13.008301 22.531775 15.989000 # CH4 
128 128 1 0.000000 13.008301 22.531775 16.655001 # CH4 
129 129 1 0.000000 13.008301 22.531775 17.322001 # CH4 
130 130 1 0.000000 13.008301 22.531775 17.988001 # CH4 
131 131 1 0.000000 13.008301 22.531775 18.653999 # CH4 
132 132 1 0.000000 13.008301 22.531775 19.320000 # CH4 
133 133 1 0.000000 13.008301 22.531775 19.986000 # CH4 
134 134 1 0.000000 13.008301 22.531775 20.653000 # CH4 
135 135 1 0.000000 13.008301 22.531775 21.319000 # CH4 
136 136 1 0.000000 13.008301 22.531775 21.985001 # CH4 
137 137 1 0.000000 13.008301 22.531775 22.651001 # CH4 
138 138 1 0.000000 13.008301 22.531775 23.318001 # CH4 
139 139 1 0.000000 13.008301 22.531775 23.984001 # CH4 
140 140 1 0.000000 13.008301 22.531775 24.650002 # CH4 
141 141 1 0.000000 13.008301 22.531775 25.316000 # CH4 
142 142 1 0.000000 13.008301 22.531775 25.983000 # CH4 
143 143 1 0.000000 13.008301 22.531775 26.649000 # CH4 
144 144 1 0.000000 13.008301 22.531775 0.000000 # CH4 
145 145 1 0.000000 13.008301 22.531775 0.666000 # CH4 
146 146 1 0.000000 13.008301 22.531775 1.332000 # CH4 
147 147 1 0.000000 13.008301 22.531775 1.999000 # CH4 
148 148 1 0.000000 13.008301 22.531775 2.665000 # CH4 
149 149 1 0.000000 13.008301 22.531775 3.331000 # CH4 
150 150 1 0.000000 13.008301 22.531775 3.997000 # CH4 
151 151 1 0.000000 13.008301 22.531775 4.664000 # CH4 
152 152 1 0.000000 13.008301 22.531775 5.330000 # CH4 
153 153 1 0.000000 13.008301 22.531775 5.996000 # CH4 
154 154 1 0.000000 13.008301 22.531775 6.662000 # CH4 
155 155 1 0.000000 13.008301 22.531775 7.329000 # CH4 
156 156 1 0.000000 13.008301 22.531775 7.995000 # CH4 
157 157 1 0.000000 13.008301 22.531775 8.661000 # CH4 
158 158 1 0.000000 13.008301 22.531775 9.327000 # CH4 
159 159 1 0.000000 13.008301 22.531775 9.993000 # CH4 
160 160 1 0.000000 13.008301 22.531775 10.660000 # CH4 
161 161 1 0.000000 13.008301 22.531775 11.326000 # CH4 
162 162 1 0.000000 13.008301 22.531775 11.992000 # CH4 
163 163 1 0.000000 13.008301 22.531775 12.658000 # CH4 
164 164 9 0.000000 23.941000 21.823999 20.945980 # Ob LIG
165 164 9 0.000000 10.932000 44.355999 20.945980 # Ob LIG
166 164 9 0.000000 23.941000 6.803000 23.221979 # Ob LIG
167 164 9 0.000000 10.932000 29.334000 23.221979 # Ob LIG
168 164 10 0.000000 23.514999 7.995000 20.491980 # Oc LIG
169 164 10 0.000000 10.506000 30.527000 20.491980 # Oc LIG
170 164 8 0.000000 22.554001 7.442000 18.022980 # Oa LIG
171 164 8 0.000000 9.546000 29.973000 18.022980 # Oa LIG
172 164 8 0.000000 22.554001 22.462999 22.575979 # Oa LIG
173 164 8 0.000000 9.546000 44.993999 22.575979 # Oa LIG
174 164 8 0.000000 21.304001 8.301000 22.575979 # Oa LIG
175 164 8 0.000000 8.295000 30.833000 22.575979 # Oa LIG
176 164 9 0.000000 21.164000 9.821000 20.945980 # Ob LIG
177 164 9 0.000000 8.155000 32.353001 20.945980 # Ob LIG
178 164 10 0.000000 21.184000 20.701000 20.491980 # Oc LIG
179 164 10 0.000000 8.176000 43.233002 20.491980 # Oc LIG
180 164 8 0.000000 21.184999 21.809999 18.022980 # Oa LIG
181 164 8 0.000000 8.176000 44.341000 18.022980 # Oa LIG
182 164 9 0.000000 19.938000 20.927999 23.221979 # Ob LIG
183 164 9 0.000000 6.930000 43.459999 23.221979 # Ob LIG
184 164 9 0.000000 19.087999 16.624001 22.302979 # Ob LIG
185 164 9 0.000000 6.079000 39.155998 22.302979 # Ob LIG
186 164 10 0.000000 18.681999 13.676000 22.756979 # Oc LIG
187 164 10 0.000000 5.673000 36.207001 22.756979 # Oc LIG
188 164 8 0.000000 17.841000 15.743000 20.672979 # Oa LIG
189 164 8 0.000000 4.833000 38.275002 20.672979 # Oa LIG
190 164 10 0.000000 17.841999 16.851000 18.204979 # Oc LIG
191 164 10 0.000000 4.833000 39.382999 18.204979 # Oc LIG
192 164 10 0.000000 10.506000 0.485000 18.214979 # Oc LIG
193 164 10 0.000000 23.514999 23.017000 18.214979 # Oc LIG
194 164 10 0.000000 10.506000 15.506000 22.767979 # Oc LIG
195 164 10 0.000000 23.514999 38.036999 22.767979 # Oc LIG
196 164 9 0.000000 10.932000 14.313000 18.668980 # Ob LIG
197 164 9 0.000000 23.941000 36.845001 18.668980 # Ob LIG
198 164 9 0.000000 15.085000 0.708000 20.026979 # Ob LIG
199 164 9 0.000000 2.076000 23.239000 20.026979 # Ob LIG
200 164 9 0.000000 15.085000 15.729000 17.750980 # Ob LIG
201 164 9 0.000000 2.077000 38.259998 17.750980 # Ob LIG
202 164 10 0.000000 15.511000 14.536000 20.480980 # Oc LIG
203 164 10 0.000000 2.503000 37.068001 20.480980 # Oc LIG
204 164 8 0.000000 16.471001 15.090000 22.948978 # Oa LIG
205 164 8 0.000000 3.463000 37.620998 22.948978 # Oa LIG
206 164 8 0.000000 16.471001 0.069000 18.396980 # Oa LIG
207 164 8 0.000000 3.463000 22.601000 18.396980 # Oa LIG
208 164 8 0.000000 17.722000 14.230000 18.396980 # Oa LIG
209 164 8 0.000000 4.713000 36.762001 18.396980 # Oa LIG
210 164 9 0.000000 17.862000 12.710000 20.026979 # Ob LIG
211 164 9 0.000000 4.853000 35.242001 20.026979 # Ob LIG
212 164 10 0.000000 17.841000 1.831000 20.480980 # Oc LIG
213 164 10 0.000000 4.833000 24.362000 20.480980 # Oc LIG
214 164 8 0.000000 17.841000 0.722000 22.948978 # Oa LIG
215 164 8 0.000000 4.833000 23.254000 22.948978 # Oa LIG
216 164 9 0.000000 19.087000 1.603000 17.750980 # Ob LIG
217 164 9 0.000000 6.079000 24.135000 17.750980 # Ob LIG
218 164 9 0.000000 19.938000 5.907000 18.668980 # Ob LIG
219 164 9 0.000000 6.930000 28.438999 18.668980 # Ob LIG
220 164 9 0.000000 2.076000 8.218000 22.302979 # Ob LIG
221 164 9 0.000000 15.085000 30.750000 22.302979 # Ob LIG
222 164 10 0.000000 2.503000 7.026000 18.204979 # Oc LIG
223 164 10 0.000000 15.511000 29.556999 18.204979 # Oc LIG
224 164 10 0.000000 2.503000 22.047001 22.756979 # Oc LIG
225 164 10 0.000000 15.511000 44.577999 22.756979 # Oc LIG
226 164 10 0.000000 20.344000 8.856000 18.215981 # Oc LIG
227 164 10 0.000000 7.336000 31.388000 18.215981 # Oc LIG
228 164 8 0.000000 21.184999 6.789000 20.299980 # Oa LIG
229 164 8 0.000000 8.176000 29.320000 20.299980 # Oa LIG
230 164 10 0.000000 21.184000 5.680000 22.767979 # Oc LIG
231 164 10 0.000000 8.176000 28.212000 22.767979 # Oc LIG
232 164 8 0.000000 3.463000 7.579000 20.672979 # Oa LIG
233 164 8 0.000000 16.471001 30.111000 20.672979 # Oa LIG
234 164 8 0.000000 4.713000 6.720000 22.948978 # Oa LIG
235 164 8 0.000000 17.722000 29.250999 22.948978 # Oa LIG
236 164 8 0.000000 4.713000 21.740999 20.672979 # Oa LIG
237 164 8 0.000000 17.722000 44.271999 20.672979 # Oa LIG
238 164 9 0.000000 4.853000 5.200000 17.750980 # Ob LIG
239 164 9 0.000000 17.862000 27.731001 17.750980 # Ob LIG
240 164 9 0.000000 4.853000 20.221001 22.302979 # Ob LIG
241 164 9 0.000000 17.862000 42.751999 22.302979 # Ob LIG
242 164 10 0.000000 4.833000 9.341000 22.756979 # Oc LIG
243 164 10 0.000000 17.841000 31.872999 22.756979 # Oc LIG
244 164 8 0.000000 4.833000 8.232000 18.396980 # Oa LIG
245 164 8 0.000000 17.841000 30.764000 18.396980 # Oa LIG
246 164 10 0.000000 5.673000 6.165000 20.480980 # Oc LIG
247 164 10 0.000000 18.681999 28.697001 20.480980 # Oc LIG
248 164 10 0.000000 5.673000 21.186001 18.204979 # Oc LIG
249 164 10 0.000000 18.681000 43.717999 18.204979 # Oc LIG
250 164 9 0.000000 6.079000 9.114000 20.026979 # Ob LIG
251 164 9 0.000000 19.087000 31.645000 20.026979 # Ob LIG
252 164 9 0.000000 6.930000 13.418000 20.945980 # Ob LIG
253 164 9 0.000000 19.938000 35.949001 20.945980 # Ob LIG
254 164 10 0.000000 7.336000 1.345000 22.767979 # Oc LIG
255 164 10 0.000000 20.344000 23.877001 22.767979 # Oc LIG
256 164 10 0.000000 7.336000 16.365999 20.491980 # Oc LIG
257 164 10 0.000000 20.344000 38.897999 20.491980 # Oc LIG
258 164 8 0.000000 8.176000 14.299000 22.575979 # Oa LIG
259 164 8 0.000000 21.184999 36.831001 22.575979 # Oa LIG
260 164 10 0.000000 8.176000 13.190000 18.214979 # Oc LIG
261 164 10 0.000000 21.184000 35.722000 18.214979 # Oc LIG
262 164 9 0.000000 8.155000 2.311000 18.668980 # Ob LIG
263 164 9 0.000000 21.164000 24.841999 18.668980 # Ob LIG
264 164 9 0.000000 8.155000 17.332001 23.221979 # Ob LIG
265 164 9 0.000000 21.164000 39.862999 23.221979 # Ob LIG
266 164 8 0.000000 8.296000 0.791000 20.299980 # Oa LIG
267 164 8 0.000000 21.304001 23.322001 20.299980 # Oa LIG
268 164 8 0.000000 8.295000 15.812000 18.022980 # Oa LIG
269 164 8 0.000000 21.304001 38.342999 18.022980 # Oa LIG
270 164 8 0.000000 9.546000 14.952000 20.299980 # Oa LIG
271 164 8 0.000000 22.554001 37.484001 20.299980 # Oa LIG
272 164 5 0.000000 25.868000 7.878000 20.672979 # Cd LIG
273 164 5 0.000000 12.860000 30.409000 20.672979 # Cd LIG
274 164 3 0.000000 24.879999 7.373000 18.527981 # Cb LIG
275 164 3 0.000000 11.871000 29.905001 18.527981 # Cb LIG
276 164 3 0.000000 24.879999 22.393999 23.080978 # Cb LIG
277 164 3 0.000000 11.871000 44.925999 23.080978 # Cb LIG
278 164 4 0.000000 24.708000 7.749000 19.900980 # Cc LIG
279 164 4 0.000000 11.699000 30.280001 19.900980 # Cc LIG
280 164 2 0.000000 23.745001 22.209999 22.137980 # Ca LIG
281 164 2 0.000000 10.736000 44.741001 22.137980 # Ca LIG
282 164 2 0.000000 23.745001 7.188000 17.585979 # Ca LIG
283 164 2 0.000000 10.736000 29.719999 17.585979 # Ca LIG
284 164 2 0.000000 20.927999 9.459000 22.137980 # Ca LIG
285 164 2 0.000000 7.919000 31.990999 22.137980 # Ca LIG
286 164 4 0.000000 20.374001 19.791000 19.900980 # Cc LIG
287 164 4 0.000000 7.365000 42.323002 19.900980 # Cc LIG
288 164 2 0.000000 20.370001 20.905001 17.585979 # Ca LIG
289 164 2 0.000000 7.361000 43.437000 17.585979 # Ca LIG
290 164 3 0.000000 20.201000 10.350000 23.080978 # Cb LIG
291 164 3 0.000000 7.192000 32.881001 23.080978 # Cb LIG
292 164 3 0.000000 19.962999 19.830000 18.527981 # Cb LIG
293 164 3 0.000000 6.954000 42.362000 18.527981 # Cb LIG
294 164 5 0.000000 19.905001 18.722000 20.672979 # Cd LIG
295 164 5 0.000000 6.897000 41.252998 20.672979 # Cd LIG
296 164 5 0.000000 19.757000 11.578000 22.575979 # Cd LIG
297 164 5 0.000000 6.749000 34.110001 22.575979 # Cd LIG
298 164 5 0.000000 19.120001 18.830999 18.022980 # Cd LIG
299 164 5 0.000000 6.112000 41.362999 18.022980 # Cd LIG
300 164 3 0.000000 19.063000 17.723000 20.167980 # Cb LIG
301 164 3 0.000000 6.055000 40.254002 20.167980 # Cb LIG
302 164 4 0.000000 19.065001 12.519000 23.347980 # Cc LIG
303 164 4 0.000000 6.056000 35.050999 23.347980 # Cc LIG
304 164 2 0.000000 18.656000 16.646999 21.110979 # Ca LIG
305 164 2 0.000000 5.647000 39.179001 21.110979 # Ca LIG
306 164 4 0.000000 18.652000 17.761000 18.795979 # Cc LIG
307 164 4 0.000000 5.643000 40.292999 18.795979 # Cc LIG
308 164 5 0.000000 0.149000 7.143000 18.022980 # Cd LIG
309 164 5 0.000000 13.157000 29.674999 18.022980 # Cd LIG
310 164 5 0.000000 0.149000 22.164000 22.575979 # Cd LIG
311 164 5 0.000000 13.157000 44.695999 22.575979 # Cd LIG
312 164 3 0.000000 1.137000 7.648000 20.167980 # Cb LIG
313 164 3 0.000000 14.146000 30.179001 20.167980 # Cb LIG
314 164 4 0.000000 1.309000 22.292999 23.347980 # Cc LIG
315 164 4 0.000000 14.318000 44.825001 23.347980 # Cc LIG
316 164 4 0.000000 1.309000 7.272000 18.795979 # Cc LIG
317 164 4 0.000000 14.318000 29.804001 18.795979 # Cc LIG
318 164 2 0.000000 10.736000 14.699000 19.861980 # Ca LIG
319 164 2 0.000000 23.745001 37.230000 19.861980 # Ca LIG
320 164 4 0.000000 11.699000 15.259000 22.176979 # Cc LIG
321 164 4 0.000000 24.708000 37.791000 22.176979 # Cc LIG
322 164 4 0.000000 11.699000 0.238000 17.624979 # Cc LIG
323 164 4 0.000000 24.708000 22.770000 17.624979 # Cc LIG
324 164 3 0.000000 11.871000 14.884000 20.804979 # Cb LIG
325 164 3 0.000000 24.879999 37.415001 20.804979 # Cb LIG
326 164 5 0.000000 12.860000 0.367000 18.396980 # Cd LIG
327 164 5 0.000000 25.868999 22.899000 18.396980 # Cd LIG
328 164 5 0.000000 12.860000 15.388000 22.949980 # Cd LIG
329 164 5 0.000000 25.868000 37.919998 22.949980 # Cd LIG
330 164 5 0.000000 13.157000 14.654000 20.299980 # Cd LIG
331 164 5 0.000000 0.149000 37.185001 20.299980 # Cd LIG
332 164 3 0.000000 14.146000 15.158000 22.443979 # Cb LIG
333 164 3 0.000000 1.137000 37.689999 22.443979 # Cb LIG
334 164 3 0.000000 14.146000 0.137000 17.891979 # Cb LIG
335 164 3 0.000000 1.137000 22.669001 17.891979 # Cb LIG
336 164 4 0.000000 14.318000 14.783000 21.071980 # Cc LIG
337 164 4 0.000000 1.309000 37.313999 21.071980 # Cc LIG
338 164 2 0.000000 15.281000 0.322000 18.834980 # Ca LIG
339 164 2 0.000000 2.272000 22.854000 18.834980 # Ca LIG
340 164 2 0.000000 15.281000 15.343000 23.386980 # Ca LIG
341 164 2 0.000000 2.272000 37.875000 23.386980 # Ca LIG
342 164 2 0.000000 18.098000 13.072000 18.833981 # Ca LIG
343 164 2 0.000000 5.089000 35.604000 18.833981 # Ca LIG
344 164 4 0.000000 18.652000 2.740000 21.071980 # Cc LIG
345 164 4 0.000000 5.643000 25.271999 21.071980 # Cc LIG
346 164 2 0.000000 18.656000 1.626000 23.386980 # Ca LIG
347 164 2 0.000000 5.647000 24.158001 23.386980 # Ca LIG
348 164 3 0.000000 18.825001 12.182000 17.891979 # Cb LIG
349 164 3 0.000000 5.816000 34.714001 17.891979 # Cb LIG
350 164 3 0.000000 19.063000 2.701000 22.443979 # Cb LIG
351 164 3 0.000000 6.055000 25.233000 22.443979 # Cb LIG
352 164 5 0.000000 19.120001 3.810000 20.299980 # Cd LIG
353 164 5 0.000000 6.111000 26.341999 20.299980 # Cd LIG
354 164 5 0.000000 19.268999 10.953000 18.396980 # Cd LIG
355 164 5 0.000000 6.260000 33.485001 18.396980 # Cd LIG
356 164 5 0.000000 19.906000 3.700000 22.948978 # Cd LIG
357 164 5 0.000000 6.897000 26.232000 22.948978 # Cd LIG
358 164 2 0.000000 2.272000 7.833000 21.110979 # Ca LIG
359 164 2 0.000000 15.281000 30.364000 21.110979 # Ca LIG
360 164 3 0.000000 19.962000 4.809000 20.804979 # Cb LIG
361 164 3 0.000000 6.954000 27.341000 20.804979 # Cb LIG
362 164 4 0.000000 19.961000 10.013000 17.624979 # Cc LIG
363 164 4 0.000000 6.953000 32.543999 17.624979 # Cc LIG
364 164 2 0.000000 20.370001 5.884000 19.861980 # Ca LIG
365 164 2 0.000000 7.361000 28.416000 19.861980 # Ca LIG
366 164 4 0.000000 20.374001 4.770000 22.176979 # Cc LIG
367 164 4 0.000000 7.366000 27.302000 22.176979 # Cc LIG
368 164 2 0.000000 5.089000 5.562000 23.386980 # Ca LIG
369 164 2 0.000000 18.098000 28.093000 23.386980 # Ca LIG
370 164 2 0.000000 5.089000 20.583000 21.110979 # Ca LIG
371 164 2 0.000000 18.098000 43.115002 21.110979 # Ca LIG
372 164 4 0.000000 5.643000 10.251000 23.347980 # Cc LIG
373 164 4 0.000000 18.652000 32.783001 23.347980 # Cc LIG
374 164 2 0.000000 5.647000 9.137000 18.834980 # Ca LIG
375 164 2 0.000000 18.656000 31.667999 18.834980 # Ca LIG
376 164 3 0.000000 5.816000 4.671000 22.443979 # Cb LIG
377 164 3 0.000000 18.825001 27.202999 22.443979 # Cb LIG
378 164 3 0.000000 5.817000 19.693001 20.167980 # Cb LIG
379 164 3 0.000000 18.825001 42.223999 20.167980 # Cb LIG
380 164 4 0.000000 6.056000 5.008000 21.071980 # Cc LIG
381 164 4 0.000000 19.065001 27.540001 21.071980 # Cc LIG
382 164 4 0.000000 6.056000 20.028999 18.795979 # Cc LIG
383 164 4 0.000000 19.063999 42.561001 18.795979 # Cc LIG
384 164 3 0.000000 6.055000 10.212000 17.891979 # Cb LIG
385 164 3 0.000000 19.063000 32.743000 17.891979 # Cb LIG
386 164 5 0.000000 6.111000 11.321000 22.575979 # Cd LIG
387 164 5 0.000000 19.120001 33.852001 22.575979 # Cd LIG
388 164 5 0.000000 6.260000 3.443000 22.948978 # Cd LIG
389 164 5 0.000000 19.268999 25.974001 22.948978 # Cd LIG
390 164 5 0.000000 6.261000 18.464001 20.672979 # Cd LIG
391 164 5 0.000000 19.268999 40.994999 20.672979 # Cd LIG
392 164 5 0.000000 6.748000 4.068000 20.299980 # Cd LIG
393 164 5 0.000000 19.757000 26.599001 20.299980 # Cd LIG
394 164 5 0.000000 6.748000 19.089001 18.022980 # Cd LIG
395 164 5 0.000000 19.757000 41.619999 18.022980 # Cd LIG
396 164 5 0.000000 6.897000 11.211000 18.396980 # Cd LIG
397 164 5 0.000000 19.906000 33.742001 18.396980 # Cd LIG
398 164 3 0.000000 6.954000 12.320000 23.080978 # Cb LIG
399 164 3 0.000000 19.962000 34.851002 23.080978 # Cb LIG
400 164 4 0.000000 6.953000 2.502000 22.176979 # Cc LIG
401 164 4 0.000000 19.961000 25.034000 22.176979 # Cc LIG
402 164 4 0.000000 6.953000 17.523001 19.900980 # Cc LIG
403 164 4 0.000000 19.961000 40.055000 19.900980 # Cc LIG
404 164 3 0.000000 7.192000 2.839000 20.804979 # Cb LIG
405 164 3 0.000000 20.201000 25.371000 20.804979 # Cb LIG
406 164 3 0.000000 7.192000 17.860001 18.527981 # Cb LIG
407 164 3 0.000000 20.201000 40.390999 18.527981 # Cb LIG
408 164 2 0.000000 7.361000 13.395000 22.137980 # Ca LIG
409 164 2 0.000000 20.370001 35.925999 22.137980 # Ca LIG
410 164 4 0.000000 7.366000 12.281000 17.624979 # Cc LIG
411 164 4 0.000000 20.374001 34.812000 17.624979 # Cc LIG
412 164 2 0.000000 7.919000 1.949000 19.861980 # Ca LIG
413 164 2 0.000000 20.927999 24.480000 19.861980 # Ca LIG
414 164 2 0.000000 7.919000 16.969999 17.585979 # Ca LIG
415 164 2 0.000000 20.927999 39.500999 17.585979 # Ca LIG
416 164 6 0.000000 25.764999 8.173000 21.715981 # H LIG
417 164 6 0.000000 12.756000 30.704000 21.715981 # H LIG
418 164 6 0.000000 20.212999 18.664000 21.715981 # H LIG
419 164 6 0.000000 7.204000 41.195999 21.715981 # H LIG
420 164 6 0.000000 19.961000 11.816000 21.532980 # H LIG
421 164 6 0.000000 6.952000 34.347000 21.532980 # H LIG
422 164 6 0.000000 18.813000 18.889000 23.808979 # H LIG
423 164 6 0.000000 5.805000 41.419998 23.808979 # H LIG
424 164 6 0.000000 0.252000 6.849000 23.808979 # H LIG
425 164 6 0.000000 13.261000 29.379999 23.808979 # H LIG
426 164 6 0.000000 0.252000 21.870001 21.532980 # H LIG
427 164 6 0.000000 13.261000 44.401001 21.532980 # H LIG
428 164 6 0.000000 12.756000 0.662000 19.439980 # H LIG
429 164 6 0.000000 25.764999 23.194000 19.439980 # H LIG
430 164 6 0.000000 12.756000 15.683000 17.163979 # H LIG
431 164 6 0.000000 25.764999 38.215000 17.163979 # H LIG
432 164 6 0.000000 13.261000 14.359000 19.255980 # H LIG
433 164 6 0.000000 0.252000 36.890999 19.255980 # H LIG
434 164 6 0.000000 18.813000 3.868000 19.256979 # H LIG
435 164 6 0.000000 5.804000 26.399000 19.256979 # H LIG
436 164 6 0.000000 19.065001 10.716000 19.439980 # H LIG
437 164 6 0.000000 6.057000 33.248001 19.439980 # H LIG
438 164 6 0.000000 20.212999 3.643000 17.163979 # H LIG
439 164 6 0.000000 7.204000 26.174000 17.163979 # H LIG
440 164 6 0.000000 5.804000 11.378000 21.532980 # H LIG
441 164 6 0.000000 18.813000 33.910000 21.532980 # H LIG
442 164 6 0.000000 6.057000 3.205000 17.163979 # H LIG
443 164 6 0.000000 19.065001 25.737000 17.163979 # H LIG
444 164 6 0.000000 6.057000 18.226999 21.715981 # H LIG
445 164 6 0.000000 19.066000 40.757999 21.715981 # H LIG
446 164 6 0.000000 6.952000 4.305000 19.256979 # H LIG
447 164 6 0.000000 19.959999 26.837000 19.256979 # H LIG
448 164 6 0.000000 6.951000 19.326000 23.808979 # H LIG
449 164 6 0.000000 19.959999 41.856998 23.808979 # H LIG
450 164 6 0.000000 7.204000 11.153000 19.439980 # H LIG
451 164 6 0.000000 20.212999 33.685001 19.439980 # H LIG
452 164 7 0.000000 22.488001 21.886000 19.548981 # Ni LIG
453 164 7 0.000000 9.479000 44.417999 19.548981 # Ni LIG
454 164 7 0.000000 20.719000 22.156000 21.825979 # Ni LIG
455 164 7 0.000000 7.710000 44.687000 21.825979 # Ni LIG
456 164 7 0.000000 8.828000 1.021000 17.272980 # Ni LIG
457 164 7 0.000000 21.837000 23.552999 17.272980 # Ni LIG
458 164 7 0.000000 16.538000 0.645000 21.423981 # Ni LIG
459 164 7 0.000000 3.529000 23.177000 21.423981 # Ni LIG
460 164 7 0.000000 18.306999 0.376000 19.147980 # Ni LIG
461 164 7 0.000000 5.299000 22.908001 19.147980 # Ni LIG
462 164 7 0.000000 4.181000 21.510000 23.699980 # Ni LIG
463 164 7 0.000000 17.188999 44.042000 23.699980 # Ni LIG
464 164 7 0.000000 22.488001 6.865000 21.824980 # Ni LIG
465 164 7 0.000000 9.479000 29.396999 21.824980 # Ni LIG
466 164 7 0.000000 21.837000 8.532000 19.548981 # Ni LIG
467 164 7 0.000000 8.828000 31.063000 19.548981 # Ni LIG
468 164 7 0.000000 20.718000 7.135000 17.272980 # Ni LIG
469 164 7 0.000000 7.710000 29.666000 17.272980 # Ni LIG
470 164 7 0.000000 3.529000 8.156000 23.699980 # Ni LIG
471 164 7 0.000000 16.538000 30.688000 23.699980 # Ni LIG
472 164 7 0.000000 4.180000 6.489000 19.147980 # Ni LIG
473 164 7 0.000000 17.188999 29.021000 19.147980 # Ni LIG
474 164 7 0.000000 5.299000 7.886000 21.423981 # Ni LIG
475 164 7 0.000000 18.306999 30.417999 21.423981 # Ni LIG
476 164 7 0.000000 7.710000 14.645000 19.548981 # Ni LIG
477 164 7 0.000000 20.719000 37.176998 19.548981 # Ni LIG
478 164 7 0.000000 8.828000 16.042000 21.824980 # Ni LIG
479 164 7 0.000000 21.837000 38.574001 21.824980 # Ni LIG
480 164 7 0.000000 9.479000 14.375000 17.272980 # Ni LIG
481 164 7 0.000000 22.488001 36.907001 17.272980 # Ni LIG
482 164 7 0.000000 18.306999 15.397000 23.699980 # Ni LIG
483 164 7 0.000000 5.299000 37.929001 23.699980 # Ni LIG
484 164 7 0.000000 16.538000 15.666000 19.146980 # Ni LIG
485 164 7 0.000000 3.529000 38.198002 19.146980 # Ni LIG
486 164 7 0.000000 17.188999 14.000000 21.423981 # Ni LIG
487 164 7 0.000000 4.180000 36.530998 21.423981 # Ni LIG
488 164 9 0.000000 23.941000 21.823999 0.459500 # Ob LIG
489 164 9 0.000000 10.932000 44.355999 0.459500 # Ob LIG
490 164 9 0.000000 23.941000 6.803000 2.735500 # Ob LIG
491 164 9 0.000000 10.932000 29.334000 2.735500 # Ob LIG
492 164 10 0.000000 23.514999 7.995000 0.005500 # Oc LIG
493 164 10 0.000000 10.506000 30.527000 0.005500 # Oc LIG
494 164 8 0.000000 22.554001 7.442000 24.851978 # Oa LIG
495 164 8 0.000000 9.546000 29.973000 24.851978 # Oa LIG
496 164 8 0.000000 22.554001 22.462999 2.089500 # Oa LIG
497 164 8 0.000000 9.546000 44.993999 2.089500 # Oa LIG
498 164 8 0.000000 21.304001 8.301000 2.089500 # Oa LIG
499 164 8 0.000000 8.295000 30.833000 2.089500 # Oa LIG
500 164 9 0.000000 21.164000 9.821000 0.459500 # Ob LIG
501 164 9 0.000000 8.155000 32.353001 0.459500 # Ob LIG
502 164 10 0.000000 21.184000 20.701000 0.005500 # Oc LIG
503 164 10 0.000000 8.176000 43.233002 0.005500 # Oc LIG
504 164 8 0.000000 21.184999 21.809999 24.851978 # Oa LIG
505 164 8 0.000000 8.176000 44.341000 24.851978 # Oa LIG
506 164 9 0.000000 19.938000 20.927999 2.735500 # Ob LIG
507 164 9 0.000000 6.930000 43.459999 2.735500 # Ob LIG
508 164 9 0.000000 19.087999 16.624001 1.816500 # Ob LIG
509 164 9 0.000000 6.079000 39.155998 1.816500 # Ob LIG
510 164 10 0.000000 18.681999 13.676000 2.270500 # Oc LIG
511 164 10 0.000000 5.673000 36.207001 2.270500 # Oc LIG
512 164 8 0.000000 17.841000 15.743000 0.186500 # Oa LIG
513 164 8 0.000000 4.833000 38.275002 0.186500 # Oa LIG
514 164 10 0.000000 17.841999 16.851000 25.033979 # Oc LIG
515 164 10 0.000000 4.833000 39.382999 25.033979 # Oc LIG
516 164 10 0.000000 10.506000 0.485000 25.043980 # Oc LIG
517 164 10 0.000000 23.514999 23.017000 25.043980 # Oc LIG
518 164 10 0.000000 10.506000 15.506000 2.281500 # Oc LIG
519 164 10 0.000000 23.514999 38.036999 2.281500 # Oc LIG
520 164 9 0.000000 10.932000 14.313000 25.497980 # Ob LIG