LAMMPS data file. CGCMM style. atom_style full generated by VMD/TopoTools v1.5 on Tue May 02 12:05:37 PDT 2017
 1503 atoms
 0 bonds
 0 angles
 0 dihedrals
 0 impropers
 10 atom types
 0 bond types
 0 angle types
 0 dihedral types
 0 improper types
 0.439550 26.456750  xlo xhi
 0.332838 45.395937  ylo yhi
 -0.000239 27.315240  zlo zhi

# Pair Coeffs
#
# 1  CH4
# 2  Ca
# 3  Cb
# 4  Cc
# 5  Cd
# 6  H
# 7  Ni
# 8  Oa
# 9  Ob
# 10  Oc

 Masses

 1 16.040001 # CH4
 2 12.011000 # Ca
 3 12.011000 # Cb
 4 12.011000 # Cc
 5 12.011000 # Cd
 6 1.008000 # H
 7 58.693001 # Ni
 8 15.999000 # Oa
 9 15.999000 # Ob
 10 15.999000 # Oc

 Atoms

1 1 1 0.000000 26.017300 45.062775 13.920000 # CH4 
2 2 1 0.000000 26.017300 45.062775 14.445001 # CH4 
3 3 1 0.000000 26.017300 45.062775 14.970000 # CH4 
4 4 1 0.000000 26.017300 45.062775 15.496000 # CH4 
5 5 1 0.000000 26.017300 45.062775 16.021000 # CH4 
6 6 1 0.000000 26.017300 45.062775 16.546001 # CH4 
7 7 1 0.000000 26.017300 45.062775 17.072001 # CH4 
8 8 1 0.000000 26.017300 45.062775 17.597000 # CH4 
9 9 1 0.000000 26.017300 45.062775 18.122002 # CH4 
10 10 1 0.000000 26.017300 45.062775 18.648001 # CH4 
11 11 1 0.000000 26.017300 45.062775 19.173000 # CH4 
12 12 1 0.000000 26.017300 45.062775 19.698000 # CH4 
13 13 1 0.000000 26.017300 45.062775 20.223000 # CH4 
14 14 1 0.000000 26.017300 45.062775 20.749001 # CH4 
15 15 1 0.000000 26.017300 45.062775 21.274000 # CH4 
16 16 1 0.000000 26.017300 45.062775 21.799000 # CH4 
17 17 1 0.000000 26.017300 45.062775 22.325001 # CH4 
18 18 1 0.000000 26.017300 45.062775 22.850000 # CH4 
19 19 1 0.000000 26.017300 45.062775 23.375000 # CH4 
20 20 1 0.000000 26.017300 45.062775 23.901001 # CH4 
21 21 1 0.000000 26.017300 45.062775 24.426001 # CH4 
22 22 1 0.000000 26.017300 45.062775 24.951000 # CH4 
23 23 1 0.000000 26.017300 45.062775 25.476000 # CH4 
24 24 1 0.000000 26.017300 45.062775 26.002001 # CH4 
25 25 1 0.000000 26.017300 45.062775 26.527000 # CH4 
26 26 1 0.000000 26.017300 45.062775 27.052000 # CH4 
27 27 1 0.000000 26.017300 45.062775 0.263000 # CH4 
28 28 1 0.000000 26.017300 45.062775 0.788000 # CH4 
29 29 1 0.000000 26.017300 45.062775 1.313000 # CH4 
30 30 1 0.000000 26.017300 45.062775 1.839000 # CH4 
31 31 1 0.000000 26.017300 45.062775 2.364000 # CH4 
32 32 1 0.000000 26.017300 45.062775 2.889000 # CH4 
33 33 1 0.000000 26.017300 45.062775 3.414000 # CH4 
34 34 1 0.000000 26.017300 45.062775 3.940000 # CH4 
35 35 1 0.000000 26.017300 45.062775 4.465000 # CH4 
36 36 1 0.000000 26.017300 45.062775 4.990000 # CH4 
37 37 1 0.000000 26.017300 45.062775 5.516000 # CH4 
38 38 1 0.000000 26.017300 45.062775 6.041000 # CH4 
39 39 1 0.000000 26.017300 45.062775 6.566000 # CH4 
40 40 1 0.000000 26.017300 45.062775 7.092000 # CH4 
41 41 1 0.000000 26.017300 45.062775 7.617000 # CH4 
42 42 1 0.000000 26.017300 45.062775 8.142000 # CH4 
43 43 1 0.000000 26.017300 45.062775 8.667000 # CH4 
44 44 1 0.000000 26.017300 45.062775 9.193000 # CH4 
45 45 1 0.000000 26.017300 45.062775 9.718000 # CH4 
46 46 1 0.000000 26.017300 45.062775 10.243000 # CH4 
47 47 1 0.000000 26.017300 45.062775 10.769000 # CH4 
48 48 1 0.000000 26.017300 45.062775 11.294000 # CH4 
49 49 1 0.000000 26.017300 45.062775 11.819000 # CH4 
50 50 1 0.000000 26.017300 45.062775 12.345000 # CH4 
51 51 1 0.000000 26.017300 45.062775 12.870000 # CH4 
52 52 1 0.000000 26.017300 45.062775 13.395000 # CH4 
53 53 1 0.000000 26.017300 22.531775 13.920000 # CH4 
54 54 1 0.000000 26.017300 22.531775 14.445001 # CH4 
55 55 1 0.000000 26.017300 22.531775 14.970000 # CH4 
56 56 1 0.000000 26.017300 22.531775 15.496000 # CH4 
57 57 1 0.000000 26.017300 22.531775 16.021000 # CH4 
58 58 1 0.000000 26.017300 22.531775 16.546001 # CH4 
59 59 1 0.000000 26.017300 22.531775 17.072001 # CH4 
60 60 1 0.000000 26.017300 22.531775 17.597000 # CH4 
61 61 1 0.000000 26.017300 22.531775 18.122002 # CH4 
62 62 1 0.000000 26.017300 22.531775 18.648001 # CH4 
63 63 1 0.000000 26.017300 22.531775 19.173000 # CH4 
64 64 1 0.000000 26.017300 22.531775 19.698000 # CH4 
65 65 1 0.000000 26.017300 22.531775 20.223000 # CH4 
66 66 1 0.000000 26.017300 22.531775 20.749001 # CH4 
67 67 1 0.000000 26.017300 22.531775 21.274000 # CH4 
68 68 1 0.000000 26.017300 22.531775 21.799000 # CH4 
69 69 1 0.000000 26.017300 22.531775 22.325001 # CH4 
70 70 1 0.000000 26.017300 22.531775 22.850000 # CH4 
71 71 1 0.000000 26.017300 22.531775 23.375000 # CH4 
72 72 1 0.000000 26.017300 22.531775 23.901001 # CH4 
73 73 1 0.000000 26.017300 22.531775 24.426001 # CH4 
74 74 1 0.000000 26.017300 22.531775 24.951000 # CH4 
75 75 1 0.000000 26.017300 22.531775 25.476000 # CH4 
76 76 1 0.000000 26.017300 22.531775 26.002001 # CH4 
77 77 1 0.000000 26.017300 22.531775 26.527000 # CH4 
78 78 1 0.000000 26.017300 22.531775 27.052000 # CH4 
79 79 1 0.000000 26.017300 22.531775 0.263000 # CH4 
80 80 1 0.000000 26.017300 22.531775 0.788000 # CH4 
81 81 1 0.000000 26.017300 22.531775 1.313000 # CH4 
82 82 1 0.000000 26.017300 22.531775 1.839000 # CH4 
83 83 1 0.000000 26.017300 22.531775 2.364000 # CH4 
84 84 1 0.000000 26.017300 22.531775 2.889000 # CH4 
85 85 1 0.000000 26.017300 22.531775 3.414000 # CH4 
86 86 1 0.000000 26.017300 22.531775 3.940000 # CH4 
87 87 1 0.000000 26.017300 22.531775 4.465000 # CH4 
88 88 1 0.000000 26.017300 22.531775 4.990000 # CH4 
89 89 1 0.000000 26.017300 22.531775 5.516000 # CH4 
90 90 1 0.000000 26.017300 22.531775 6.041000 # CH4 
91 91 1 0.000000 26.017300 22.531775 6.566000 # CH4 
92 92 1 0.000000 26.017300 22.531775 7.092000 # CH4 
93 93 1 0.000000 26.017300 22.531775 7.617000 # CH4 
94 94 1 0.000000 26.017300 22.531775 8.142000 # CH4 
95 95 1 0.000000 26.017300 22.531775 8.667000 # CH4 
96 96 1 0.000000 26.017300 22.531775 9.193000 # CH4 
97 97 1 0.000000 26.017300 22.531775 9.718000 # CH4 
98 98 1 0.000000 26.017300 22.531775 10.243000 # CH4 
99 99 1 0.000000 26.017300 22.531775 10.769000 # CH4 
100 100 1 0.000000 26.017300 22.531775 11.294000 # CH4 
101 101 1 0.000000 26.017300 22.531775 11.819000 # CH4 
102 102 1 0.000000 26.017300 22.531775 12.345000 # CH4 
103 103 1 0.000000 26.017300 22.531775 12.870000 # CH4 
104 104 1 0.000000 26.017300 22.531775 13.395000 # CH4 
105 105 1 0.000000 13.008301 45.062775 13.920000 # CH4 
106 106 1 0.000000 13.008301 45.062775 14.445001 # CH4 
107 107 1 0.000000 13.008301 45.062775 14.970000 # CH4 
108 108 1 0.000000 13.008301 45.062775 15.496000 # CH4 
109 109 1 0.000000 13.008301 45.062775 16.021000 # CH4 
110 110 1 0.000000 13.008301 45.062775 16.546001 # CH4 
111 111 1 0.000000 13.008301 45.062775 17.072001 # CH4 
112 112 1 0.000000 13.008301 45.062775 17.597000 # CH4 
113 113 1 0.000000 13.008301 45.062775 18.122002 # CH4 
114 114 1 0.000000 13.008301 45.062775 18.648001 # CH4 
115 115 1 0.000000 13.008301 45.062775 19.173000 # CH4 
116 116 1 0.000000 13.008301 45.062775 19.698000 # CH4 
117 117 1 0.000000 13.008301 45.062775 20.223000 # CH4 
118 118 1 0.000000 13.008301 45.062775 20.749001 # CH4 
119 119 1 0.000000 13.008301 45.062775 21.274000 # CH4 
120 120 1 0.000000 13.008301 45.062775 21.799000 # CH4 
121 121 1 0.000000 13.008301 45.062775 22.325001 # CH4 
122 122 1 0.000000 13.008301 45.062775 22.850000 # CH4 
123 123 1 0.000000 13.008301 45.062775 23.375000 # CH4 
124 124 1 0.000000 13.008301 45.062775 23.901001 # CH4 
125 125 1 0.000000 13.008301 45.062775 24.426001 # CH4 
126 126 1 0.000000 13.008301 45.062775 24.951000 # CH4 
127 127 1 0.000000 13.008301 45.062775 25.476000 # CH4 
128 128 1 0.000000 13.008301 45.062775 26.002001 # CH4 
129 129 1 0.000000 13.008301 45.062775 26.527000 # CH4 
130 130 1 0.000000 13.008301 45.062775 27.052000 # CH4 
131 131 1 0.000000 13.008301 45.062775 0.263000 # CH4 
132 132 1 0.000000 13.008301 45.062775 0.788000 # CH4 
133 133 1 0.000000 13.008301 45.062775 1.313000 # CH4 
134 134 1 0.000000 13.008301 45.062775 1.839000 # CH4 
135 135 1 0.000000 13.008301 45.062775 2.364000 # CH4 
136 136 1 0.000000 13.008301 45.062775 2.889000 # CH4 
137 137 1 0.000000 13.008301 45.062775 3.414000 # CH4 
138 138 1 0.000000 13.008301 45.062775 3.940000 # CH4 
139 139 1 0.000000 13.008301 45.062775 4.465000 # CH4 
140 140 1 0.000000 13.008301 45.062775 4.990000 # CH4 
141 141 1 0.000000 13.008301 45.062775 5.516000 # CH4 
142 142 1 0.000000 13.008301 45.062775 6.041000 # CH4 
143 143 1 0.000000 13.008301 45.062775 6.566000 # CH4 
144 144 1 0.000000 13.008301 45.062775 7.092000 # CH4 
145 145 1 0.000000 13.008301 45.062775 7.617000 # CH4 
146 146 1 0.000000 13.008301 45.062775 8.142000 # CH4 
147 147 1 0.000000 13.008301 45.062775 8.667000 # CH4 
148 148 1 0.000000 13.008301 45.062775 9.193000 # CH4 
149 149 1 0.000000 13.008301 45.062775 9.718000 # CH4 
150 150 1 0.000000 13.008301 45.062775 10.243000 # CH4 
151 151 1 0.000000 13.008301 45.062775 10.769000 # CH4 
152 152 1 0.000000 13.008301 45.062775 11.294000 # CH4 
153 153 1 0.000000 13.008301 45.062775 11.819000 # CH4 
154 154 1 0.000000 13.008301 45.062775 12.345000 # CH4 
155 155 1 0.000000 13.008301 45.062775 12.870000 # CH4 
156 156 1 0.000000 13.008301 45.062775 13.395000 # CH4 
157 157 1 0.000000 13.008301 22.531775 13.920000 # CH4 
158 158 1 0.000000 13.008301 22.531775 14.445001 # CH4 
159 159 1 0.000000 13.008301 22.531775 14.970000 # CH4 
160 160 1 0.000000 13.008301 22.531775 15.496000 # CH4 
161 161 1 0.000000 13.008301 22.531775 16.021000 # CH4 
162 162 1 0.000000 13.008301 22.531775 16.546001 # CH4 
163 163 1 0.000000 13.008301 22.531775 17.072001 # CH4 
164 164 1 0.000000 13.008301 22.531775 17.597000 # CH4 
165 165 1 0.000000 13.008301 22.531775 18.122002 # CH4 
166 166 1 0.000000 13.008301 22.531775 18.648001 # CH4 
167 167 1 0.000000 13.008301 22.531775 19.173000 # CH4 
168 168 1 0.000000 13.008301 22.531775 19.698000 # CH4 
169 169 1 0.000000 13.008301 22.531775 20.223000 # CH4 
170 170 1 0.000000 13.008301 22.531775 20.749001 # CH4 
171 171 1 0.000000 13.008301 22.531775 21.274000 # CH4 
172 172 1 0.000000 13.008301 22.531775 21.799000 # CH4 
173 173 1 0.000000 13.008301 22.531775 22.325001 # CH4 
174 174 1 0.000000 13.008301 22.531775 22.850000 # CH4 
175 175 1 0.000000 13.008301 22.531775 23.375000 # CH4 
176 176 1 0.000000 13.008301 22.531775 23.901001 # CH4 
177 177 1 0.000000 13.008301 22.531775 24.426001 # CH4 
178 178 1 0.000000 13.008301 22.531775 24.951000 # CH4 
179 179 1 0.000000 13.008301 22.531775 25.476000 # CH4 
180 180 1 0.000000 13.008301 22.531775 26.002001 # CH4 
181 181 1 0.000000 13.008301 22.531775 26.527000 # CH4 
182 182 1 0.000000 13.008301 22.531775 27.052000 # CH4 
183 183 1 0.000000 13.008301 22.531775 0.263000 # CH4 
184 184 1 0.000000 13.008301 22.531775 0.788000 # CH4 
185 185 1 0.000000 13.008301 22.531775 1.313000 # CH4 
186 186 1 0.000000 13.008301 22.531775 1.839000 # CH4 
187 187 1 0.000000 13.008301 22.531775 2.364000 # CH4 
188 188 1 0.000000 13.008301 22.531775 2.889000 # CH4 
189 189 1 0.000000 13.008301 22.531775 3.414000 # CH4 
190 190 1 0.000000 13.008301 22.531775 3.940000 # CH4 
191 191 1 0.000000 13.008301 22.531775 4.465000 # CH4 
192 192 1 0.000000 13.008301 22.531775 4.990000 # CH4 
193 193 1 0.000000 13.008301 22.531775 5.516000 # CH4 
194 194 1 0.000000 13.008301 22.531775 6.041000 # CH4 
195 195 1 0.000000 13.008301 22.531775 6.566000 # CH4 
196 196 1 0.000000 13.008301 22.531775 7.092000 # CH4 
197 197 1 0.000000 13.008301 22.531775 7.617000 # CH4 
198 198 1 0.000000 13.008301 22.531775 8.142000 # CH4 
199 199 1 0.000000 13.008301 22.531775 8.667000 # CH4 
200 200 1 0.000000 13.008301 22.531775 9.193000 # CH4 
201 201 1 0.000000 13.008301 22.531775 9.718000 # CH4 
202 202 1 0.000000 13.008301 22.531775 10.243000 # CH4 
203 203 1 0.000000 13.008301 22.531775 10.769000 # CH4 
204 204 1 0.000000 13.008301 22.531775 11.294000 # CH4 
205 205 1 0.000000 13.008301 22.531775 11.819000 # CH4 
206 206 1 0.000000 13.008301 22.531775 12.345000 # CH4 
207 207 1 0.000000 13.008301 22.531775 12.870000 # CH4 
208 208 9 0.000000 23.941000 21.823999 20.945980 # Ob LIG
209 208 9 0.000000 10.932000 44.355999 20.945980 # Ob LIG
210 208 9 0.000000 23.941000 6.803000 23.221979 # Ob LIG
211 208 9 0.000000 10.932000 29.334000 23.221979 # Ob LIG
212 208 10 0.000000 23.514999 7.995000 20.491980 # Oc LIG
213 208 10 0.000000 10.506000 30.527000 20.491980 # Oc LIG
214 208 8 0.000000 22.554001 7.442000 18.022980 # Oa LIG
215 208 8 0.000000 9.546000 29.973000 18.022980 # Oa LIG
216 208 8 0.000000 22.554001 22.462999 22.575979 # Oa LIG
217 208 8 0.000000 9.546000 44.993999 22.575979 # Oa LIG
218 208 8 0.000000 21.304001 8.301000 22.575979 # Oa LIG
219 208 8 0.000000 8.295000 30.833000 22.575979 # Oa LIG
220 208 9 0.000000 21.164000 9.821000 20.945980 # Ob LIG
221 208 9 0.000000 8.155000 32.353001 20.945980 # Ob LIG
222 208 10 0.000000 21.184000 20.701000 20.491980 # Oc LIG
223 208 10 0.000000 8.176000 43.233002 20.491980 # Oc LIG
224 208 8 0.000000 21.184999 21.809999 18.022980 # Oa LIG
225 208 8 0.000000 8.176000 44.341000 18.022980 # Oa LIG
226 208 9 0.000000 19.938000 20.927999 23.221979 # Ob LIG
227 208 9 0.000000 6.930000 43.459999 23.221979 # Ob LIG
228 208 9 0.000000 19.087999 16.624001 22.302979 # Ob LIG
229 208 9 0.000000 6.079000 39.155998 22.302979 # Ob LIG
230 208 10 0.000000 18.681999 13.676000 22.756979 # Oc LIG
231 208 10 0.000000 5.673000 36.207001 22.756979 # Oc LIG
232 208 8 0.000000 17.841000 15.743000 20.672979 # Oa LIG
233 208 8 0.000000 4.833000 38.275002 20.672979 # Oa LIG
234 208 10 0.000000 17.841999 16.851000 18.204979 # Oc LIG
235 208 10 0.000000 4.833000 39.382999 18.204979 # Oc LIG
236 208 10 0.000000 10.506000 0.485000 18.214979 # Oc LIG
237 208 10 0.000000 23.514999 23.017000 18.214979 # Oc LIG
238 208 10 0.000000 10.506000 15.506000 22.767979 # Oc LIG
239 208 10 0.000000 23.514999 38.036999 22.767979 # Oc LIG
240 208 9 0.000000 10.932000 14.313000 18.668980 # Ob LIG
241 208 9 0.000000 23.941000 36.845001 18.668980 # Ob LIG
242 208 9 0.000000 15.085000 0.708000 20.026979 # Ob LIG
243 208 9 0.000000 2.076000 23.239000 20.026979 # Ob LIG
244 208 9 0.000000 15.085000 15.729000 17.750980 # Ob LIG
245 208 9 0.000000 2.077000 38.259998 17.750980 # Ob LIG
246 208 10 0.000000 15.511000 14.536000 20.480980 # Oc LIG
247 208 10 0.000000 2.503000 37.068001 20.480980 # Oc LIG
248 208 8 0.000000 16.471001 15.090000 22.948978 # Oa LIG
249 208 8 0.000000 3.463000 37.620998 22.948978 # Oa LIG
250 208 8 0.000000 16.471001 0.069000 18.396980 # Oa LIG
251 208 8 0.000000 3.463000 22.601000 18.396980 # Oa LIG
252 208 8 0.000000 17.722000 14.230000 18.396980 # Oa LIG
253 208 8 0.000000 4.713000 36.762001 18.396980 # Oa LIG
254 208 9 0.000000 17.862000 12.710000 20.026979 # Ob LIG
255 208 9 0.000000 4.853000 35.242001 20.026979 # Ob LIG
256 208 10 0.000000 17.841000 1.831000 20.480980 # Oc LIG
257 208 10 0.000000 4.833000 24.362000 20.480980 # Oc LIG
258 208 8 0.000000 17.841000 0.722000 22.948978 # Oa LIG
259 208 8 0.000000 4.833000 23.254000 22.948978 # Oa LIG
260 208 9 0.000000 19.087000 1.603000 17.750980 # Ob LIG
261 208 9 0.000000 6.079000 24.135000 17.750980 # Ob LIG
262 208 9 0.000000 19.938000 5.907000 18.668980 # Ob LIG
263 208 9 0.000000 6.930000 28.438999 18.668980 # Ob LIG
264 208 9 0.000000 2.076000 8.218000 22.302979 # Ob LIG
265 208 9 0.000000 15.085000 30.750000 22.302979 # Ob LIG
266 208 10 0.000000 2.503000 7.026000 18.204979 # Oc LIG
267 208 10 0.000000 15.511000 29.556999 18.204979 # Oc LIG
268 208 10 0.000000 2.503000 22.047001 22.756979 # Oc LIG
269 208 10 0.000000 15.511000 44.577999 22.756979 # Oc LIG
270 208 10 0.000000 20.344000 8.856000 18.215981 # Oc LIG
271 208 10 0.000000 7.336000 31.388000 18.215981 # Oc LIG
272 208 8 0.000000 21.184999 6.789000 20.299980 # Oa LIG
273 208 8 0.000000 8.176000 29.320000 20.299980 # Oa LIG
274 208 10 0.000000 21.184000 5.680000 22.767979 # Oc LIG
275 208 10 0.000000 8.176000 28.212000 22.767979 # Oc LIG
276 208 8 0.000000 3.463000 7.579000 20.672979 # Oa LIG
277 208 8 0.000000 16.471001 30.111000 20.672979 # Oa LIG
278 208 8 0.000000 4.713000 6.720000 22.948978 # Oa LIG
279 208 8 0.000000 17.722000 29.250999 22.948978 # Oa LIG
280 208 8 0.000000 4.713000 21.740999 20.672979 # Oa LIG
281 208 8 0.000000 17.722000 44.271999 20.672979 # Oa LIG
282 208 9 0.000000 4.853000 5.200000 17.750980 # Ob LIG
283 208 9 0.000000 17.862000 27.731001 17.750980 # Ob LIG
284 208 9 0.000000 4.853000 20.221001 22.302979 # Ob LIG
285 208 9 0.000000 17.862000 42.751999 22.302979 # Ob LIG
286 208 10 0.000000 4.833000 9.341000 22.756979 # Oc LIG
287 208 10 0.000000 17.841000 31.872999 22.756979 # Oc LIG
288 208 8 0.000000 4.833000 8.232000 18.396980 # Oa LIG
289 208 8 0.000000 17.841000 30.764000 18.396980 # Oa LIG
290 208 10 0.000000 5.673000 6.165000 20.480980 # Oc LIG
291 208 10 0.000000 18.681999 28.697001 20.480980 # Oc LIG
292 208 10 0.000000 5.673000 21.186001 18.204979 # Oc LIG
293 208 10 0.000000 18.681000 43.717999 18.204979 # Oc LIG
294 208 9 0.000000 6.079000 9.114000 20.026979 # Ob LIG
295 208 9 0.000000 19.087000 31.645000 20.026979 # Ob LIG
296 208 9 0.000000 6.930000 13.418000 20.945980 # Ob LIG
297 208 9 0.000000 19.938000 35.949001 20.945980 # Ob LIG
298 208 10 0.000000 7.336000 1.345000 22.767979 # Oc LIG
299 208 10 0.000000 20.344000 23.877001 22.767979 # Oc LIG
300 208 10 0.000000 7.336000 16.365999 20.491980 # Oc LIG
301 208 10 0.000000 20.344000 38.897999 20.491980 # Oc LIG
302 208 8 0.000000 8.176000 14.299000 22.575979 # Oa LIG
303 208 8 0.000000 21.184999 36.831001 22.575979 # Oa LIG
304 208 10 0.000000 8.176000 13.190000 18.214979 # Oc LIG
305 208 10 0.000000 21.184000 35.722000 18.214979 # Oc LIG
306 208 9 0.000000 8.155000 2.311000 18.668980 # Ob LIG
307 208 9 0.000000 21.164000 24.841999 18.668980 # Ob LIG
308 208 9 0.000000 8.155000 17.332001 23.221979 # Ob LIG
309 208 9 0.000000 21.164000 39.862999 23.221979 # Ob LIG
310 208 8 0.000000 8.296000 0.791000 20.299980 # Oa LIG
311 208 8 0.000000 21.304001 23.322001 20.299980 # Oa LIG
312 208 8 0.000000 8.295000 15.812000 18.022980 # Oa LIG
313 208 8 0.000000 21.304001 38.342999 18.022980 # Oa LIG
314 208 8 0.000000 9.546000 14.952000 20.299980 # Oa LIG
315 208 8 0.000000 22.554001 37.484001 20.299980 # Oa LIG
316 208 5 0.000000 25.868000 7.878000 20.672979 # Cd LIG
317 208 5 0.000000 12.860000 30.409000 20.672979 # Cd LIG
318 208 3 0.000000 24.879999 7.373000 18.527981 # Cb LIG
319 208 3 0.000000 11.871000 29.905001 18.527981 # Cb LIG
320 208 3 0.000000 24.879999 22.393999 23.080978 # Cb LIG
321 208 3 0.000000 11.871000 44.925999 23.080978 # Cb LIG
322 208 4 0.000000 24.708000 7.749000 19.900980 # Cc LIG
323 208 4 0.000000 11.699000 30.280001 19.900980 # Cc LIG
324 208 2 0.000000 23.745001 22.209999 22.137980 # Ca LIG
325 208 2 0.000000 10.736000 44.741001 22.137980 # Ca LIG
326 208 2 0.000000 23.745001 7.188000 17.585979 # Ca LIG
327 208 2 0.000000 10.736000 29.719999 17.585979 # Ca LIG
328 208 2 0.000000 20.927999 9.459000 22.137980 # Ca LIG
329 208 2 0.000000 7.919000 31.990999 22.137980 # Ca LIG
330 208 4 0.000000 20.374001 19.791000 19.900980 # Cc LIG
331 208 4 0.000000 7.365000 42.323002 19.900980 # Cc LIG
332 208 2 0.000000 20.370001 20.905001 17.585979 # Ca LIG
333 208 2 0.000000 7.361000 43.437000 17.585979 # Ca LIG
334 208 3 0.000000 20.201000 10.350000 23.080978 # Cb LIG
335 208 3 0.000000 7.192000 32.881001 23.080978 # Cb LIG
336 208 3 0.000000 19.962999 19.830000 18.527981 # Cb LIG
337 208 3 0.000000 6.954000 42.362000 18.527981 # Cb LIG
338 208 5 0.000000 19.905001 18.722000 20.672979 # Cd LIG
339 208 5 0.000000 6.897000 41.252998 20.672979 # Cd LIG
340 208 5 0.000000 19.757000 11.578000 22.575979 # Cd LIG
341 208 5 0.000000 6.749000 34.110001 22.575979 # Cd LIG
342 208 5 0.000000 19.120001 18.830999 18.022980 # Cd LIG
343 208 5 0.000000 6.112000 41.362999 18.022980 # Cd LIG
344 208 3 0.000000 19.063000 17.723000 20.167980 # Cb LIG
345 208 3 0.000000 6.055000 40.254002 20.167980 # Cb LIG
346 208 4 0.000000 19.065001 12.519000 23.347980 # Cc LIG
347 208 4 0.000000 6.056000 35.050999 23.347980 # Cc LIG
348 208 2 0.000000 18.656000 16.646999 21.110979 # Ca LIG
349 208 2 0.000000 5.647000 39.179001 21.110979 # Ca LIG
350 208 4 0.000000 18.652000 17.761000 18.795979 # Cc LIG
351 208 4 0.000000 5.643000 40.292999 18.795979 # Cc LIG
352 208 5 0.000000 0.149000 7.143000 18.022980 # Cd LIG
353 208 5 0.000000 13.157000 29.674999 18.022980 # Cd LIG
354 208 5 0.000000 0.149000 22.164000 22.575979 # Cd LIG
355 208 5 0.000000 13.157000 44.695999 22.575979 # Cd LIG
356 208 3 0.000000 1.137000 7.648000 20.167980 # Cb LIG
357 208 3 0.000000 14.146000 30.179001 20.167980 # Cb LIG
358 208 4 0.000000 1.309000 22.292999 23.347980 # Cc LIG
359 208 4 0.000000 14.318000 44.825001 23.347980 # Cc LIG
360 208 4 0.000000 1.309000 7.272000 18.795979 # Cc LIG
361 208 4 0.000000 14.318000 29.804001 18.795979 # Cc LIG
362 208 2 0.000000 10.736000 14.699000 19.861980 # Ca LIG
363 208 2 0.000000 23.745001 37.230000 19.861980 # Ca LIG
364 208 4 0.000000 11.699000 15.259000 22.176979 # Cc LIG
365 208 4 0.000000 24.708000 37.791000 22.176979 # Cc LIG
366 208 4 0.000000 11.699000 0.238000 17.624979 # Cc LIG
367 208 4 0.000000 24.708000 22.770000 17.624979 # Cc LIG
368 208 3 0.000000 11.871000 14.884000 20.804979 # Cb LIG
369 208 3 0.000000 24.879999 37.415001 20.804979 # Cb LIG
370 208 5 0.000000 12.860000 0.367000 18.396980 # Cd LIG
371 208 5 0.000000 25.868999 22.899000 18.396980 # Cd LIG
372 208 5 0.000000 12.860000 15.388000 22.949980 # Cd LIG
373 208 5 0.000000 25.868000 37.919998 22.949980 # Cd LIG
374 208 5 0.000000 13.157000 14.654000 20.299980 # Cd LIG
375 208 5 0.000000 0.149000 37.185001 20.299980 # Cd LIG
376 208 3 0.000000 14.146000 15.158000 22.443979 # Cb LIG
377 208 3 0.000000 1.137000 37.689999 22.443979 # Cb LIG
378 208 3 0.000000 14.146000 0.137000 17.891979 # Cb LIG
379 208 3 0.000000 1.137000 22.669001 17.891979 # Cb LIG
380 208 4 0.000000 14.318000 14.783000 21.071980 # Cc LIG
381 208 4 0.000000 1.309000 37.313999 21.071980 # Cc LIG
382 208 2 0.000000 15.281000 0.322000 18.834980 # Ca LIG
383 208 2 0.000000 2.272000 22.854000 18.834980 # Ca LIG
384 208 2 0.000000 15.281000 15.343000 23.386980 # Ca LIG
385 208 2 0.000000 2.272000 37.875000 23.386980 # Ca LIG
386 208 2 0.000000 18.098000 13.072000 18.833981 # Ca LIG
387 208 2 0.000000 5.089000 35.604000 18.833981 # Ca LIG
388 208 4 0.000000 18.652000 2.740000 21.071980 # Cc LIG
389 208 4 0.000000 5.643000 25.271999 21.071980 # Cc LIG
390 208 2 0.000000 18.656000 1.626000 23.386980 # Ca LIG
391 208 2 0.000000 5.647000 24.158001 23.386980 # Ca LIG
392 208 3 0.000000 18.825001 12.182000 17.891979 # Cb LIG
393 208 3 0.000000 5.816000 34.714001 17.891979 # Cb LIG
394 208 3 0.000000 19.063000 2.701000 22.443979 # Cb LIG
395 208 3 0.000000 6.055000 25.233000 22.443979 # Cb LIG
396 208 5 0.000000 19.120001 3.810000 20.299980 # Cd LIG
397 208 5 0.000000 6.111000 26.341999 20.299980 # Cd LIG
398 208 5 0.000000 19.268999 10.953000 18.396980 # Cd LIG
399 208 5 0.000000 6.260000 33.485001 18.396980 # Cd LIG
400 208 5 0.000000 19.906000 3.700000 22.948978 # Cd LIG
401 208 5 0.000000 6.897000 26.232000 22.948978 # Cd LIG
402 208 2 0.000000 2.272000 7.833000 21.110979 # Ca LIG
403 208 2 0.000000 15.281000 30.364000 21.110979 # Ca LIG
404 208 3 0.000000 19.962000 4.809000 20.804979 # Cb LIG
405 208 3 0.000000 6.954000 27.341000 20.804979 # Cb LIG
406 208 4 0.000000 19.961000 10.013000 17.624979 # Cc LIG
407 208 4 0.000000 6.953000 32.543999 17.624979 # Cc LIG
408 208 2 0.000000 20.370001 5.884000 19.861980 # Ca LIG
409 208 2 0.000000 7.361000 28.416000 19.861980 # Ca LIG
410 208 4 0.000000 20.374001 4.770000 22.176979 # Cc LIG
411 208 4 0.000000 7.366000 27.302000 22.176979 # Cc LIG
412 208 2 0.000000 5.089000 5.562000 23.386980 # Ca LIG
413 208 2 0.000000 18.098000 28.093000 23.386980 # Ca LIG
414 208 2 0.000000 5.089000 20.583000 21.110979 # Ca LIG
415 208 2 0.000000 18.098000 43.115002 21.110979 # Ca LIG
416 208 4 0.000000 5.643000 10.251000 23.347980 # Cc LIG
417 208 4 0.000000 18.652000 32.783001 23.347980 # Cc LIG
418 208 2 0.000000 5.647000 9.137000 18.834980 # Ca LIG
419 208 2 0.000000 18.656000 31.667999 18.834980 # Ca LIG
420 208 3 0.000000 5.816000 4.671000 22.443979 # Cb LIG
421 208 3 0.000000 18.825001 27.202999 22.443979 # Cb LIG
422 208 3 0.000000 5.817000 19.693001 20.167980 # Cb LIG
423 208 3 0.000000 18.825001 42.223999 20.167980 # Cb LIG
424 208 4 0.000000 6.056000 5.008000 21.071980 # Cc LIG
425 208 4 0.000000 19.065001 27.540001 21.071980 # Cc LIG
426 208 4 0.000000 6.056000 20.028999 18.795979 # Cc LIG
427 208 4 0.000000 19.063999 42.561001 18.795979 # Cc LIG
428 208 3 0.000000 6.055000 10.212000 17.891979 # Cb LIG
429 208 3 0.000000 19.063000 32.743000 17.891979 # Cb LIG
430 208 5 0.000000 6.111000 11.321000 22.575979 # Cd LIG
431 208 5 0.000000 19.120001 33.852001 22.575979 # Cd LIG
432 208 5 0.000000 6.260000 3.443000 22.948978 # Cd LIG
433 208 5 0.000000 19.268999 25.974001 22.948978 # Cd LIG
434 208 5 0.000000 6.261000 18.464001 20.672979 # Cd LIG
435 208 5 0.000000 19.268999 40.994999 20.672979 # Cd LIG
436 208 5 0.000000 6.748000 4.068000 20.299980 # Cd LIG
437 208 5 0.000000 19.757000 26.599001 20.299980 # Cd LIG
438 208 5 0.000000 6.748000 19.089001 18.022980 # Cd LIG
439 208 5 0.000000 19.757000 41.619999 18.022980 # Cd LIG
440 208 5 0.000000 6.897000 11.211000 18.396980 # Cd LIG
441 208 5 0.000000 19.906000 33.742001 18.396980 # Cd LIG
442 208 3 0.000000 6.954000 12.320000 23.080978 # Cb LIG
443 208 3 0.000000 19.962000 34.851002 23.080978 # Cb LIG
444 208 4 0.000000 6.953000 2.502000 22.176979 # Cc LIG
445 208 4 0.000000 19.961000 25.034000 22.176979 # Cc LIG
446 208 4 0.000000 6.953000 17.523001 19.900980 # Cc LIG
447 208 4 0.000000 19.961000 40.055000 19.900980 # Cc LIG
448 208 3 0.000000 7.192000 2.839000 20.804979 # Cb LIG
449 208 3 0.000000 20.201000 25.371000 20.804979 # Cb LIG
450 208 3 0.000000 7.192000 17.860001 18.527981 # Cb LIG
451 208 3 0.000000 20.201000 40.390999 18.527981 # Cb LIG
452 208 2 0.000000 7.361000 13.395000 22.137980 # Ca LIG
453 208 2 0.000000 20.370001 35.925999 22.137980 # Ca LIG
454 208 4 0.000000 7.366000 12.281000 17.624979 # Cc LIG
455 208 4 0.000000 20.374001 34.812000 17.624979 # Cc LIG
456 208 2 0.000000 7.919000 1.949000 19.861980 # Ca LIG
457 208 2 0.000000 20.927999 24.480000 19.861980 # Ca LIG
458 208 2 0.000000 7.919000 16.969999 17.585979 # Ca LIG
459 208 2 0.000000 20.927999 39.500999 17.585979 # Ca LIG
460 208 6 0.000000 25.764999 8.173000 21.715981 # H LIG
461 208 6 0.000000 12.756000 30.704000 21.715981 # H LIG
462 208 6 0.000000 20.212999 18.664000 21.715981 # H LIG
463 208 6 0.000000 7.204000 41.195999 21.715981 # H LIG
464 208 6 0.000000 19.961000 11.816000 21.532980 # H LIG
465 208 6 0.000000 6.952000 34.347000 21.532980 # H LIG
466 208 6 0.000000 18.813000 18.889000 23.808979 # H LIG
467 208 6 0.000000 5.805000 41.419998 23.808979 # H LIG
468 208 6 0.000000 0.252000 6.849000 23.808979 # H LIG
469 208 6 0.000000 13.261000 29.379999 23.808979 # H LIG
470 208 6 0.000000 0.252000 21.870001 21.532980 # H LIG
471 208 6 0.000000 13.261000 44.401001 21.532980 # H LIG
472 208 6 0.000000 12.756000 0.662000 19.439980 # H LIG
473 208 6 0.000000 25.764999 23.194000 19.439980 # H LIG
474 208 6 0.000000 12.756000 15.683000 17.163979 # H LIG
475 208 6 0.000000 25.764999 38.215000 17.163979 # H LIG
476 208 6 0.000000 13.261000 14.359000 19.255980 # H LIG
477 208 6 0.000000 0.252000 36.890999 19.255980 # H LIG
478 208 6 0.000000 18.813000 3.868000 19.256979 # H LIG
479 208 6 0.000000 5.804000 26.399000 19.256979 # H LIG
480 208 6 0.000000 19.065001 10.716000 19.439980 # H LIG
481 208 6 0.000000 6.057000 33.248001 19.439980 # H LIG
482 208 6 0.000000 20.212999 3.643000 17.163979 # H LIG
483 208 6 0.000000 7.204000 26.174000 17.163979 # H LIG
484 208 6 0.000000 5.804000 11.378000 21.532980 # H LIG
485 208 6 0.000000 18.813000 33.910000 21.532980 # H LIG
486 208 6 0.000000 6.057000 3.205000 17.163979 # H LIG
487 208 6 0.000000 19.065001 25.737000 17.163979 # H LIG
488 208 6 0.000000 6.057000 18.226999 21.715981 # H LIG
489 208 6 0.000000 19.066000 40.757999 21.715981 # H LIG
490 208 6 0.000000 6.952000 4.305000 19.256979 # H LIG
491 208 6 0.000000 19.959999 26.837000 19.256979 # H LIG
492 208 6 0.000000 6.951000 19.326000 23.808979 # H LIG
493 208 6 0.000000 19.959999 41.856998 23.808979 # H LIG
494 208 6 0.000000 7.204000 11.153000 19.439980 # H LIG
495 208 6 0.000000 20.212999 33.685001 19.439980 # H LIG
496 208 7 0.000000 22.488001 21.886000 19.548981 # Ni LIG
497 208 7 0.000000 9.479000 44.417999 19.548981 # Ni LIG
498 208 7 0.000000 20.719000 22.156000 21.825979 # Ni LIG
499 208 7 0.000000 7.710000 44.687000 21.825979 # Ni LIG
500 208 7 0.000000 8.828000 1.021000 17.272980 # Ni LIG
501 208 7 0.000000 21.837000 23.552999 17.272980 # Ni LIG
502 208 7 0.000000 16.538000 0.645000 21.423981 # Ni LIG
503 208 7 0.000000 3.529000 23.177000 21.423981 # Ni LIG
504 208 7 0.000000 18.306999 0.376000 19.147980 # Ni LIG
505 208 7 0.000000 5.299000 22.908001 19.147980 # Ni LIG
506 208 7 0.000000 4.181000 21.510000 23.699980 # Ni LIG
507 208 7 0.000000 17.188999 44.042000 23.699980 # Ni LIG
508 208 7 0.000000 22.488001 6.865000 21.824980 # Ni LIG
509 208 7 0.000000 9.479000 29.396999 21.824980 # Ni LIG
510 208 7 0.000000 21.837000 8.532000 19.548981 # Ni LIG
511 208 7 0.000000 8.828000 31.063000 19.548981 # Ni LIG
512 208 7 0.000000 20.718000 7.135000 17.272980 # Ni LIG
513 208 7 0.000000 7.710000 29.666000 17.272980 # Ni LIG
514 208 7 0.000000 3.529000 8.156000 23.699980 # Ni LIG
515 208 7 0.000000 16.538000 30.688000 23.699980 # Ni LIG
516 208 7 0.000000 4.180000 6.489000 19.147980 # Ni LIG
517 208 7 0.000000 17.188999 29.021000 19.147980 # Ni LIG
518 208 7 0.000000 5.299000 7.886000 21.423981 # Ni LIG
519 208 7 0.000000 18.306999 30.417999 21.423981 # Ni LIG
520 208 7 0.000000 7.710000 14.645000 19.548981 # Ni LIG
521 208 7 0.000000 20.719000 37.176998 19.548981 # Ni LIG
522 208 7 0.000000 8.828000 16.042000 21.824980 # Ni LIG