LAMMPS data file. CGCMM style. atom_style full generated by VMD/TopoTools v1.5 on Mon Apr 24 10:58:30 PDT 2017
 1617 atoms
 214 bonds
 0 angles
 0 dihedrals
 0 impropers
 11 atom types
 1 bond types
 0 angle types
 0 dihedral types
 0 improper types
 0.444700 26.558700  xlo xhi
 0.314250 45.544250  ylo yhi
 -0.334271 27.332729  zlo zhi

# Pair Coeffs
#
# 1  Ca
# 2  Cb
# 3  Cc
# 4  Cd
# 5  Cg
# 6  H
# 7  Mg
# 8  Oa
# 9  Ob
# 10  Oc
# 11  Og

 Masses

 1 12.011000 # Ca
 2 12.011000 # Cb
 3 12.011000 # Cc
 4 12.011000 # Cd
 5 12.011000 # Cg
 6 1.008000 # H
 7 24.305000 # Mg
 8 15.999000 # Oa
 9 15.999000 # Ob
 10 15.999000 # Oc
 11 15.999000 # Og

 Atoms

1 1 11 -0.325600 26.114401 45.230499 16.666000 # Og 
2 1 5 0.651200 26.114401 45.230499 15.506000 # Cg 
3 1 11 -0.325600 26.114401 45.230499 14.346000 # Og 
4 2 11 -0.325600 26.114401 45.230499 17.691000 # Og 
5 2 5 0.651200 26.114401 45.230499 16.531000 # Cg 
6 2 11 -0.325600 26.114401 45.230499 15.371000 # Og 
7 3 11 -0.325600 26.114401 45.230499 18.715000 # Og 
8 3 5 0.651200 26.114401 45.230499 17.555000 # Cg 
9 3 11 -0.325600 26.114401 45.230499 16.395000 # Og 
10 4 11 -0.325600 26.114401 45.230499 19.740000 # Og 
11 4 5 0.651200 26.114401 45.230499 18.580000 # Cg 
12 4 11 -0.325600 26.114401 45.230499 17.420000 # Og 
13 5 11 -0.325600 26.114401 45.230499 20.764999 # Og 
14 5 5 0.651200 26.114401 45.230499 19.605000 # Cg 
15 5 11 -0.325600 26.114401 45.230499 18.445000 # Og 
16 6 11 -0.325600 26.114401 45.230499 21.789000 # Og 
17 6 5 0.651200 26.114401 45.230499 20.629000 # Cg 
18 6 11 -0.325600 26.114401 45.230499 19.469000 # Og 
19 7 11 -0.325600 26.114401 45.230499 22.813999 # Og 
20 7 5 0.651200 26.114401 45.230499 21.653999 # Cg 
21 7 11 -0.325600 26.114401 45.230499 20.493999 # Og 
22 8 11 -0.325600 26.114401 45.230499 23.839001 # Og 
23 8 5 0.651200 26.114401 45.230499 22.679001 # Cg 
24 8 11 -0.325600 26.114401 45.230499 21.519001 # Og 
25 9 11 -0.325600 26.114401 45.230499 24.862999 # Og 
26 9 5 0.651200 26.114401 45.230499 23.702999 # Cg 
27 9 11 -0.325600 26.114401 45.230499 22.542999 # Og 
28 10 11 -0.325600 26.114401 45.230499 25.888000 # Og 
29 10 5 0.651200 26.114401 45.230499 24.728001 # Cg 
30 10 11 -0.325600 26.114401 45.230499 23.568001 # Og 
31 11 11 -0.325600 26.114401 45.230499 26.913000 # Og 
32 11 5 0.651200 26.114401 45.230499 25.753000 # Cg 
33 11 11 -0.325600 26.114401 45.230499 24.593000 # Og 
34 12 11 -0.325600 26.114401 45.230499 0.271000 # Og 
35 12 5 0.651200 26.114401 45.230499 26.778000 # Cg 
36 12 11 -0.325600 26.114401 45.230499 25.618000 # Og 
37 13 11 -0.325600 26.114401 45.230499 1.295000 # Og 
38 13 5 0.651200 26.114401 45.230499 0.135000 # Cg 
39 13 11 -0.325600 26.114401 45.230499 26.642000 # Og 
40 14 11 -0.325600 26.114401 45.230499 2.320000 # Og 
41 14 5 0.651200 26.114401 45.230499 1.160000 # Cg 
42 14 11 -0.325600 26.114401 45.230499 0.000000 # Og 
43 15 11 -0.325600 26.114401 45.230499 3.345000 # Og 
44 15 5 0.651200 26.114401 45.230499 2.185000 # Cg 
45 15 11 -0.325600 26.114401 45.230499 1.025000 # Og 
46 16 11 -0.325600 26.114401 45.230499 4.369000 # Og 
47 16 5 0.651200 26.114401 45.230499 3.209000 # Cg 
48 16 11 -0.325600 26.114401 45.230499 2.049000 # Og 
49 17 11 -0.325600 26.114401 45.230499 5.394000 # Og 
50 17 5 0.651200 26.114401 45.230499 4.234000 # Cg 
51 17 11 -0.325600 26.114401 45.230499 3.074000 # Og 
52 18 11 -0.325600 26.114401 45.230499 6.419000 # Og 
53 18 5 0.651200 26.114401 45.230499 5.259000 # Cg 
54 18 11 -0.325600 26.114401 45.230499 4.099000 # Og 
55 19 11 -0.325600 26.114401 45.230499 7.444000 # Og 
56 19 5 0.651200 26.114401 45.230499 6.284000 # Cg 
57 19 11 -0.325600 26.114401 45.230499 5.124000 # Og 
58 20 11 -0.325600 26.114401 45.230499 8.468000 # Og 
59 20 5 0.651200 26.114401 45.230499 7.308000 # Cg 
60 20 11 -0.325600 26.114401 45.230499 6.148000 # Og 
61 21 11 -0.325600 26.114401 45.230499 9.493000 # Og 
62 21 5 0.651200 26.114401 45.230499 8.333000 # Cg 
63 21 11 -0.325600 26.114401 45.230499 7.173000 # Og 
64 22 11 -0.325600 26.114401 45.230499 10.518000 # Og 
65 22 5 0.651200 26.114401 45.230499 9.358000 # Cg 
66 22 11 -0.325600 26.114401 45.230499 8.198000 # Og 
67 23 11 -0.325600 26.114401 45.230499 11.542000 # Og 
68 23 5 0.651200 26.114401 45.230499 10.382000 # Cg 
69 23 11 -0.325600 26.114401 45.230499 9.222000 # Og 
70 24 11 -0.325600 26.114401 45.230499 12.567000 # Og 
71 24 5 0.651200 26.114401 45.230499 11.407000 # Cg 
72 24 11 -0.325600 26.114401 45.230499 10.247000 # Og 
73 25 11 -0.325600 26.114401 45.230499 13.592000 # Og 
74 25 5 0.651200 26.114401 45.230499 12.432000 # Cg 
75 25 11 -0.325600 26.114401 45.230499 11.272000 # Og 
76 26 11 -0.325600 26.114401 45.230499 14.616000 # Og 
77 26 5 0.651200 26.114401 45.230499 13.456000 # Cg 
78 26 11 -0.325600 26.114401 45.230499 12.296000 # Og 
79 27 11 -0.325600 26.114401 45.230499 15.641000 # Og 
80 27 5 0.651200 26.114401 45.230499 14.481000 # Cg 
81 27 11 -0.325600 26.114401 45.230499 13.321000 # Og 
82 28 11 -0.325600 26.114401 22.614500 16.666000 # Og 
83 28 5 0.651200 26.114401 22.614500 15.506000 # Cg 
84 28 11 -0.325600 26.114401 22.614500 14.346000 # Og 
85 29 11 -0.325600 26.114401 22.614500 17.691000 # Og 
86 29 5 0.651200 26.114401 22.614500 16.531000 # Cg 
87 29 11 -0.325600 26.114401 22.614500 15.371000 # Og 
88 30 11 -0.325600 26.114401 22.614500 18.715000 # Og 
89 30 5 0.651200 26.114401 22.614500 17.555000 # Cg 
90 30 11 -0.325600 26.114401 22.614500 16.395000 # Og 
91 31 11 -0.325600 26.114401 22.614500 19.740000 # Og 
92 31 5 0.651200 26.114401 22.614500 18.580000 # Cg 
93 31 11 -0.325600 26.114401 22.614500 17.420000 # Og 
94 32 11 -0.325600 26.114401 22.614500 20.764999 # Og 
95 32 5 0.651200 26.114401 22.614500 19.605000 # Cg 
96 32 11 -0.325600 26.114401 22.614500 18.445000 # Og 
97 33 11 -0.325600 26.114401 22.614500 21.789000 # Og 
98 33 5 0.651200 26.114401 22.614500 20.629000 # Cg 
99 33 11 -0.325600 26.114401 22.614500 19.469000 # Og 
100 34 11 -0.325600 26.114401 22.614500 22.813999 # Og 
101 34 5 0.651200 26.114401 22.614500 21.653999 # Cg 
102 34 11 -0.325600 26.114401 22.614500 20.493999 # Og 
103 35 11 -0.325600 26.114401 22.614500 23.839001 # Og 
104 35 5 0.651200 26.114401 22.614500 22.679001 # Cg 
105 35 11 -0.325600 26.114401 22.614500 21.519001 # Og 
106 36 11 -0.325600 26.114401 22.614500 24.862999 # Og 
107 36 5 0.651200 26.114401 22.614500 23.702999 # Cg 
108 36 11 -0.325600 26.114401 22.614500 22.542999 # Og 
109 37 11 -0.325600 26.114401 22.614500 25.888000 # Og 
110 37 5 0.651200 26.114401 22.614500 24.728001 # Cg 
111 37 11 -0.325600 26.114401 22.614500 23.568001 # Og 
112 38 11 -0.325600 26.114401 22.614500 26.913000 # Og 
113 38 5 0.651200 26.114401 22.614500 25.753000 # Cg 
114 38 11 -0.325600 26.114401 22.614500 24.593000 # Og 
115 39 11 -0.325600 26.114401 22.614500 0.271000 # Og 
116 39 5 0.651200 26.114401 22.614500 26.778000 # Cg 
117 39 11 -0.325600 26.114401 22.614500 25.618000 # Og 
118 40 11 -0.325600 26.114401 22.614500 1.295000 # Og 
119 40 5 0.651200 26.114401 22.614500 0.135000 # Cg 
120 40 11 -0.325600 26.114401 22.614500 26.642000 # Og 
121 41 11 -0.325600 26.114401 22.614500 2.320000 # Og 
122 41 5 0.651200 26.114401 22.614500 1.160000 # Cg 
123 41 11 -0.325600 26.114401 22.614500 0.000000 # Og 
124 42 11 -0.325600 26.114401 22.614500 3.345000 # Og 
125 42 5 0.651200 26.114401 22.614500 2.185000 # Cg 
126 42 11 -0.325600 26.114401 22.614500 1.025000 # Og 
127 43 11 -0.325600 26.114401 22.614500 4.369000 # Og 
128 43 5 0.651200 26.114401 22.614500 3.209000 # Cg 
129 43 11 -0.325600 26.114401 22.614500 2.049000 # Og 
130 44 11 -0.325600 26.114401 22.614500 5.394000 # Og 
131 44 5 0.651200 26.114401 22.614500 4.234000 # Cg 
132 44 11 -0.325600 26.114401 22.614500 3.074000 # Og 
133 45 11 -0.325600 26.114401 22.614500 6.419000 # Og 
134 45 5 0.651200 26.114401 22.614500 5.259000 # Cg 
135 45 11 -0.325600 26.114401 22.614500 4.099000 # Og 
136 46 11 -0.325600 26.114401 22.614500 7.444000 # Og 
137 46 5 0.651200 26.114401 22.614500 6.284000 # Cg 
138 46 11 -0.325600 26.114401 22.614500 5.124000 # Og 
139 47 11 -0.325600 26.114401 22.614500 8.468000 # Og 
140 47 5 0.651200 26.114401 22.614500 7.308000 # Cg 
141 47 11 -0.325600 26.114401 22.614500 6.148000 # Og 
142 48 11 -0.325600 26.114401 22.614500 9.493000 # Og 
143 48 5 0.651200 26.114401 22.614500 8.333000 # Cg 
144 48 11 -0.325600 26.114401 22.614500 7.173000 # Og 
145 49 11 -0.325600 26.114401 22.614500 10.518000 # Og 
146 49 5 0.651200 26.114401 22.614500 9.358000 # Cg 
147 49 11 -0.325600 26.114401 22.614500 8.198000 # Og 
148 50 11 -0.325600 26.114401 22.614500 11.542000 # Og 
149 50 5 0.651200 26.114401 22.614500 10.382000 # Cg 
150 50 11 -0.325600 26.114401 22.614500 9.222000 # Og 
151 51 11 -0.325600 26.114401 22.614500 12.567000 # Og 
152 51 5 0.651200 26.114401 22.614500 11.407000 # Cg 
153 51 11 -0.325600 26.114401 22.614500 10.247000 # Og 
154 52 11 -0.325600 26.114401 22.614500 13.592000 # Og 
155 52 5 0.651200 26.114401 22.614500 12.432000 # Cg 
156 52 11 -0.325600 26.114401 22.614500 11.272000 # Og 
157 53 11 -0.325600 26.114401 22.614500 14.616000 # Og 
158 53 5 0.651200 26.114401 22.614500 13.456000 # Cg 
159 53 11 -0.325600 26.114401 22.614500 12.296000 # Og 
160 54 11 -0.325600 26.114401 22.614500 15.641000 # Og 
161 54 5 0.651200 26.114401 22.614500 14.481000 # Cg 
162 54 11 -0.325600 26.114401 22.614500 13.321000 # Og 
163 55 11 -0.325600 13.056400 45.230499 16.666000 # Og 
164 55 5 0.651200 13.056400 45.230499 15.506000 # Cg 
165 55 11 -0.325600 13.056400 45.230499 14.346000 # Og 
166 56 11 -0.325600 13.056400 45.230499 17.691000 # Og 
167 56 5 0.651200 13.056400 45.230499 16.531000 # Cg 
168 56 11 -0.325600 13.056400 45.230499 15.371000 # Og 
169 57 11 -0.325600 13.056400 45.230499 18.715000 # Og 
170 57 5 0.651200 13.056400 45.230499 17.555000 # Cg 
171 57 11 -0.325600 13.056400 45.230499 16.395000 # Og 
172 58 11 -0.325600 13.056400 45.230499 19.740000 # Og 
173 58 5 0.651200 13.056400 45.230499 18.580000 # Cg 
174 58 11 -0.325600 13.056400 45.230499 17.420000 # Og 
175 59 11 -0.325600 13.056400 45.230499 20.764999 # Og 
176 59 5 0.651200 13.056400 45.230499 19.605000 # Cg 
177 59 11 -0.325600 13.056400 45.230499 18.445000 # Og 
178 60 11 -0.325600 13.056400 45.230499 21.789000 # Og 
179 60 5 0.651200 13.056400 45.230499 20.629000 # Cg 
180 60 11 -0.325600 13.056400 45.230499 19.469000 # Og 
181 61 11 -0.325600 13.056400 45.230499 22.813999 # Og 
182 61 5 0.651200 13.056400 45.230499 21.653999 # Cg 
183 61 11 -0.325600 13.056400 45.230499 20.493999 # Og 
184 62 11 -0.325600 13.056400 45.230499 23.839001 # Og 
185 62 5 0.651200 13.056400 45.230499 22.679001 # Cg 
186 62 11 -0.325600 13.056400 45.230499 21.519001 # Og 
187 63 11 -0.325600 13.056400 45.230499 24.862999 # Og 
188 63 5 0.651200 13.056400 45.230499 23.702999 # Cg 
189 63 11 -0.325600 13.056400 45.230499 22.542999 # Og 
190 64 11 -0.325600 13.056400 45.230499 25.888000 # Og 
191 64 5 0.651200 13.056400 45.230499 24.728001 # Cg 
192 64 11 -0.325600 13.056400 45.230499 23.568001 # Og 
193 65 11 -0.325600 13.056400 45.230499 26.913000 # Og 
194 65 5 0.651200 13.056400 45.230499 25.753000 # Cg 
195 65 11 -0.325600 13.056400 45.230499 24.593000 # Og 
196 66 11 -0.325600 13.056400 45.230499 0.271000 # Og 
197 66 5 0.651200 13.056400 45.230499 26.778000 # Cg 
198 66 11 -0.325600 13.056400 45.230499 25.618000 # Og 
199 67 11 -0.325600 13.056400 45.230499 1.295000 # Og 
200 67 5 0.651200 13.056400 45.230499 0.135000 # Cg 
201 67 11 -0.325600 13.056400 45.230499 26.642000 # Og 
202 68 11 -0.325600 13.056400 45.230499 2.320000 # Og 
203 68 5 0.651200 13.056400 45.230499 1.160000 # Cg 
204 68 11 -0.325600 13.056400 45.230499 0.000000 # Og 
205 69 11 -0.325600 13.056400 45.230499 3.345000 # Og 
206 69 5 0.651200 13.056400 45.230499 2.185000 # Cg 
207 69 11 -0.325600 13.056400 45.230499 1.025000 # Og 
208 70 11 -0.325600 13.056400 45.230499 4.369000 # Og 
209 70 5 0.651200 13.056400 45.230499 3.209000 # Cg 
210 70 11 -0.325600 13.056400 45.230499 2.049000 # Og 
211 71 11 -0.325600 13.056400 45.230499 5.394000 # Og 
212 71 5 0.651200 13.056400 45.230499 4.234000 # Cg 
213 71 11 -0.325600 13.056400 45.230499 3.074000 # Og 
214 72 11 -0.325600 13.056400 45.230499 6.419000 # Og 
215 72 5 0.651200 13.056400 45.230499 5.259000 # Cg 
216 72 11 -0.325600 13.056400 45.230499 4.099000 # Og 
217 73 11 -0.325600 13.056400 45.230499 7.444000 # Og 
218 73 5 0.651200 13.056400 45.230499 6.284000 # Cg 
219 73 11 -0.325600 13.056400 45.230499 5.124000 # Og 
220 74 11 -0.325600 13.056400 45.230499 8.468000 # Og 
221 74 5 0.651200 13.056400 45.230499 7.308000 # Cg 
222 74 11 -0.325600 13.056400 45.230499 6.148000 # Og 
223 75 11 -0.325600 13.056400 45.230499 9.493000 # Og 
224 75 5 0.651200 13.056400 45.230499 8.333000 # Cg 
225 75 11 -0.325600 13.056400 45.230499 7.173000 # Og 
226 76 11 -0.325600 13.056400 45.230499 10.518000 # Og 
227 76 5 0.651200 13.056400 45.230499 9.358000 # Cg 
228 76 11 -0.325600 13.056400 45.230499 8.198000 # Og 
229 77 11 -0.325600 13.056400 45.230499 11.542000 # Og 
230 77 5 0.651200 13.056400 45.230499 10.382000 # Cg 
231 77 11 -0.325600 13.056400 45.230499 9.222000 # Og 
232 78 11 -0.325600 13.056400 45.230499 12.567000 # Og 
233 78 5 0.651200 13.056400 45.230499 11.407000 # Cg 
234 78 11 -0.325600 13.056400 45.230499 10.247000 # Og 
235 79 11 -0.325600 13.056400 45.230499 13.592000 # Og 
236 79 5 0.651200 13.056400 45.230499 12.432000 # Cg 
237 79 11 -0.325600 13.056400 45.230499 11.272000 # Og 
238 80 11 -0.325600 13.056400 45.230499 14.616000 # Og 
239 80 5 0.651200 13.056400 45.230499 13.456000 # Cg 
240 80 11 -0.325600 13.056400 45.230499 12.296000 # Og 
241 81 11 -0.325600 13.056400 45.230499 15.641000 # Og 
242 81 5 0.651200 13.056400 45.230499 14.481000 # Cg 
243 81 11 -0.325600 13.056400 45.230499 13.321000 # Og 
244 82 11 -0.325600 13.056400 22.614500 16.666000 # Og 
245 82 5 0.651200 13.056400 22.614500 15.506000 # Cg 
246 82 11 -0.325600 13.056400 22.614500 14.346000 # Og 
247 83 11 -0.325600 13.056400 22.614500 17.691000 # Og 
248 83 5 0.651200 13.056400 22.614500 16.531000 # Cg 
249 83 11 -0.325600 13.056400 22.614500 15.371000 # Og 
250 84 11 -0.325600 13.056400 22.614500 18.715000 # Og 
251 84 5 0.651200 13.056400 22.614500 17.555000 # Cg 
252 84 11 -0.325600 13.056400 22.614500 16.395000 # Og 
253 85 11 -0.325600 13.056400 22.614500 19.740000 # Og 
254 85 5 0.651200 13.056400 22.614500 18.580000 # Cg 
255 85 11 -0.325600 13.056400 22.614500 17.420000 # Og 
256 86 11 -0.325600 13.056400 22.614500 20.764999 # Og 
257 86 5 0.651200 13.056400 22.614500 19.605000 # Cg 
258 86 11 -0.325600 13.056400 22.614500 18.445000 # Og 
259 87 11 -0.325600 13.056400 22.614500 21.789000 # Og 
260 87 5 0.651200 13.056400 22.614500 20.629000 # Cg 
261 87 11 -0.325600 13.056400 22.614500 19.469000 # Og 
262 88 11 -0.325600 13.056400 22.614500 22.813999 # Og 
263 88 5 0.651200 13.056400 22.614500 21.653999 # Cg 
264 88 11 -0.325600 13.056400 22.614500 20.493999 # Og 
265 89 11 -0.325600 13.056400 22.614500 23.839001 # Og 
266 89 5 0.651200 13.056400 22.614500 22.679001 # Cg 
267 89 11 -0.325600 13.056400 22.614500 21.519001 # Og 
268 90 11 -0.325600 13.056400 22.614500 24.862999 # Og 
269 90 5 0.651200 13.056400 22.614500 23.702999 # Cg 
270 90 11 -0.325600 13.056400 22.614500 22.542999 # Og 
271 91 11 -0.325600 13.056400 22.614500 25.888000 # Og 
272 91 5 0.651200 13.056400 22.614500 24.728001 # Cg 
273 91 11 -0.325600 13.056400 22.614500 23.568001 # Og 
274 92 11 -0.325600 13.056400 22.614500 26.913000 # Og 
275 92 5 0.651200 13.056400 22.614500 25.753000 # Cg 
276 92 11 -0.325600 13.056400 22.614500 24.593000 # Og 
277 93 11 -0.325600 13.056400 22.614500 0.271000 # Og 
278 93 5 0.651200 13.056400 22.614500 26.778000 # Cg 
279 93 11 -0.325600 13.056400 22.614500 25.618000 # Og 
280 94 11 -0.325600 13.056400 22.614500 1.295000 # Og 
281 94 5 0.651200 13.056400 22.614500 0.135000 # Cg 
282 94 11 -0.325600 13.056400 22.614500 26.642000 # Og 
283 95 11 -0.325600 13.056400 22.614500 2.320000 # Og 
284 95 5 0.651200 13.056400 22.614500 1.160000 # Cg 
285 95 11 -0.325600 13.056400 22.614500 0.000000 # Og 
286 96 11 -0.325600 13.056400 22.614500 3.345000 # Og 
287 96 5 0.651200 13.056400 22.614500 2.185000 # Cg 
288 96 11 -0.325600 13.056400 22.614500 1.025000 # Og 
289 97 11 -0.325600 13.056400 22.614500 4.369000 # Og 
290 97 5 0.651200 13.056400 22.614500 3.209000 # Cg 
291 97 11 -0.325600 13.056400 22.614500 2.049000 # Og 
292 98 11 -0.325600 13.056400 22.614500 5.394000 # Og 
293 98 5 0.651200 13.056400 22.614500 4.234000 # Cg 
294 98 11 -0.325600 13.056400 22.614500 3.074000 # Og 
295 99 11 -0.325600 13.056400 22.614500 6.419000 # Og 
296 99 5 0.651200 13.056400 22.614500 5.259000 # Cg 
297 99 11 -0.325600 13.056400 22.614500 4.099000 # Og 
298 100 11 -0.325600 13.056400 22.614500 7.444000 # Og 
299 100 5 0.651200 13.056400 22.614500 6.284000 # Cg 
300 100 11 -0.325600 13.056400 22.614500 5.124000 # Og 
301 101 11 -0.325600 13.056400 22.614500 8.468000 # Og 
302 101 5 0.651200 13.056400 22.614500 7.308000 # Cg 
303 101 11 -0.325600 13.056400 22.614500 6.148000 # Og 
304 102 11 -0.325600 13.056400 22.614500 9.493000 # Og 
305 102 5 0.651200 13.056400 22.614500 8.333000 # Cg 
306 102 11 -0.325600 13.056400 22.614500 7.173000 # Og 
307 103 11 -0.325600 13.056400 22.614500 10.518000 # Og 
308 103 5 0.651200 13.056400 22.614500 9.358000 # Cg 
309 103 11 -0.325600 13.056400 22.614500 8.198000 # Og 
310 104 11 -0.325600 13.056400 22.614500 11.542000 # Og 
311 104 5 0.651200 13.056400 22.614500 10.382000 # Cg 
312 104 11 -0.325600 13.056400 22.614500 9.222000 # Og 
313 105 11 -0.325600 13.056400 22.614500 12.567000 # Og 
314 105 5 0.651200 13.056400 22.614500 11.407000 # Cg 
315 105 11 -0.325600 13.056400 22.614500 10.247000 # Og 
316 106 11 -0.325600 13.056400 22.614500 13.592000 # Og 
317 106 5 0.651200 13.056400 22.614500 12.432000 # Cg 
318 106 11 -0.325600 13.056400 22.614500 11.272000 # Og 
319 107 11 -0.325600 13.056400 22.614500 14.616000 # Og 
320 107 5 0.651200 13.056400 22.614500 13.456000 # Cg 
321 107 11 -0.325600 13.056400 22.614500 12.296000 # Og 
322 108 7 1.560000 5.314000 7.966000 21.684460 # Mg LIG
323 108 7 1.560000 18.371000 30.580999 21.684460 # Mg LIG
324 108 7 1.560000 4.242000 6.491000 19.378460 # Mg LIG
325 108 7 1.560000 17.299000 29.106001 19.378460 # Mg LIG
326 108 7 1.560000 3.501000 8.158000 23.990459 # Mg LIG
327 108 7 1.560000 16.558001 30.773001 23.990459 # Mg LIG
328 108 7 1.560000 7.743000 14.649000 19.815460 # Mg LIG
329 108 7 1.560000 20.799000 37.264000 19.815460 # Mg LIG
330 108 7 1.560000 8.815000 16.124001 22.120461 # Mg LIG
331 108 7 1.560000 21.872000 38.738998 22.120461 # Mg LIG
332 108 7 1.560000 9.556000 14.457000 17.509460 # Mg LIG
333 108 7 1.560000 22.613001 37.071999 17.509460 # Mg LIG
334 108 7 1.560000 8.815000 31.200001 19.815460 # Mg LIG
335 108 7 1.560000 21.872000 8.585000 19.815460 # Mg LIG
336 108 7 1.560000 9.556000 29.534000 22.120461 # Mg LIG
337 108 7 1.560000 22.613001 6.919000 22.120461 # Mg LIG
338 108 7 1.560000 4.242000 21.568001 23.990459 # Mg LIG
339 108 7 1.560000 17.299000 44.182999 23.990459 # Mg LIG
340 108 7 1.560000 8.815000 1.047000 17.509460 # Mg LIG
341 108 7 1.560000 21.872000 23.662001 17.509460 # Mg LIG
342 108 7 1.560000 5.314000 38.118999 23.990459 # Mg LIG
343 108 7 1.560000 18.371000 15.504000 23.990459 # Mg LIG
344 108 7 1.560000 7.743000 44.801998 22.120461 # Mg LIG
345 108 7 1.560000 20.799000 22.187000 22.120461 # Mg LIG
346 108 7 1.560000 9.556000 44.611000 19.815460 # Mg LIG
347 108 7 1.560000 22.613001 21.996000 19.815460 # Mg LIG
348 108 7 1.560000 3.501000 38.311001 19.378460 # Mg LIG
349 108 7 1.560000 16.558001 15.696000 19.378460 # Mg LIG
350 108 7 1.560000 4.242000 36.645000 21.684460 # Mg LIG
351 108 7 1.560000 17.299000 14.030000 21.684460 # Mg LIG
352 108 7 1.560000 5.314000 23.042999 19.378460 # Mg LIG
353 108 7 1.560000 18.371000 0.428000 19.378460 # Mg LIG
354 108 7 1.560000 3.501000 23.233999 21.684460 # Mg LIG
355 108 7 1.560000 16.558001 0.619000 21.684460 # Mg LIG
356 108 7 1.560000 7.743000 29.726000 17.509460 # Mg LIG
357 108 7 1.560000 20.799000 7.111000 17.509460 # Mg LIG
358 108 1 0.900000 5.704000 9.170000 19.055460 # Ca LIG
359 108 1 0.900000 18.761000 31.785000 19.055460 # Ca LIG
360 108 2 -0.314000 6.098000 10.247000 18.115459 # Cb LIG
361 108 2 -0.314000 19.155001 32.862000 18.115459 # Cb LIG
362 108 4 -0.234000 6.932000 11.258000 18.610460 # Cd LIG
363 108 4 -0.234000 19.989000 33.873001 18.610460 # Cd LIG
364 108 6 0.186000 7.248000 11.206000 19.650459 # H LIG
365 108 6 0.186000 20.305000 33.820999 19.650459 # H LIG
366 108 9 -0.752000 6.149000 9.140000 20.245461 # Ob LIG
367 108 9 -0.752000 19.205999 31.754999 20.245461 # Ob LIG
368 108 8 -0.899000 4.881000 8.269000 18.627460 # Oa LIG
369 108 8 -0.899000 17.938000 30.884001 18.627460 # Oa LIG
370 108 10 -0.903000 8.183000 13.257000 18.410460 # Oc LIG
371 108 10 -0.903000 21.240000 35.872002 18.410460 # Oc LIG
372 108 8 -0.899000 4.721000 6.715000 23.238461 # Oa LIG
373 108 8 -0.899000 17.777000 29.330000 23.238461 # Oa LIG
374 108 8 -0.899000 3.455000 7.631000 20.933460 # Oa LIG
375 108 8 -0.899000 16.511000 30.246000 20.933460 # Oa LIG
376 108 10 -0.903000 4.874000 9.358000 23.088459 # Oc LIG
377 108 10 -0.903000 17.930000 31.973000 23.088459 # Oc LIG
378 108 10 -0.903000 5.668000 6.177000 20.783461 # Oc LIG
379 108 10 -0.903000 18.725000 28.792000 20.783461 # Oc LIG
380 108 3 0.456000 5.672000 10.284000 23.664459 # Cc LIG
381 108 3 0.456000 18.729000 32.898998 23.664459 # Cc LIG
382 108 1 0.900000 7.353000 13.445000 22.444460 # Ca LIG
383 108 1 0.900000 20.409000 36.060001 22.444460 # Ca LIG
384 108 2 -0.314000 6.959000 12.368000 23.384460 # Cb LIG
385 108 2 -0.314000 20.016001 34.983002 23.384460 # Cb LIG
386 108 3 0.456000 7.384000 12.331000 17.835461 # Cc LIG
387 108 3 0.456000 20.441000 34.945999 17.835461 # Cc LIG
388 108 4 -0.234000 6.125000 11.357000 22.889460 # Cd LIG
389 108 4 -0.234000 19.181000 33.972000 22.889460 # Cd LIG
390 108 6 0.186000 5.809000 11.409000 21.849461 # H LIG
391 108 6 0.186000 18.865999 34.023998 21.849461 # H LIG
392 108 9 -0.752000 6.908000 13.475000 21.254459 # Ob LIG
393 108 9 -0.752000 19.965000 36.090000 21.254459 # Ob LIG
394 108 8 -0.899000 8.175000 14.346000 22.871460 # Oa LIG
395 108 8 -0.899000 21.232000 36.960999 22.871460 # Oa LIG
396 108 8 -0.899000 8.336000 15.900000 18.260460 # Oa LIG
397 108 8 -0.899000 21.393000 38.514999 18.260460 # Oa LIG
398 108 8 -0.899000 9.602000 14.984000 20.566460 # Oa LIG
399 108 8 -0.899000 22.659000 37.598999 20.566460 # Oa LIG
400 108 10 -0.903000 7.389000 16.438000 20.716461 # Oc LIG
401 108 10 -0.903000 20.445999 39.053001 20.716461 # Oc LIG
402 108 8 -0.899000 9.602000 30.059999 18.260460 # Oa LIG
403 108 8 -0.899000 22.659000 7.445000 18.260460 # Oa LIG
404 108 8 -0.899000 8.336000 30.976999 22.871460 # Oa LIG
405 108 8 -0.899000 21.393000 8.362000 22.871460 # Oa LIG
406 108 8 -0.899000 4.721000 21.791000 20.933460 # Oa LIG
407 108 8 -0.899000 17.777000 44.405998 20.933460 # Oa LIG
408 108 10 -0.903000 5.668000 21.254000 18.477459 # Oc LIG
409 108 10 -0.903000 18.725000 43.868999 18.477459 # Oc LIG
410 108 8 -0.899000 8.336000 0.824000 20.566460 # Oa LIG
411 108 8 -0.899000 21.393000 23.438999 20.566460 # Oa LIG
412 108 10 -0.903000 7.389000 1.361000 23.021460 # Oc LIG
413 108 10 -0.903000 20.445999 23.976000 23.021460 # Oc LIG
414 108 10 -0.903000 4.874000 39.512001 18.477459 # Oc LIG
415 108 10 -0.903000 17.930000 16.896999 18.477459 # Oc LIG
416 108 1 0.900000 5.704000 39.324001 21.360460 # Ca LIG
417 108 1 0.900000 18.761000 16.709000 21.360460 # Ca LIG
418 108 2 -0.314000 6.098000 40.401001 20.421459 # Cb LIG
419 108 2 -0.314000 19.155001 17.785999 20.421459 # Cb LIG
420 108 3 0.456000 5.672000 40.438000 19.053459 # Cc LIG
421 108 3 0.456000 18.729000 17.823000 19.053459 # Cc LIG
422 108 4 -0.234000 6.932000 41.410999 20.916460 # Cd LIG
423 108 4 -0.234000 19.989000 18.796000 20.916460 # Cd LIG
424 108 6 0.186000 7.248000 41.359001 21.955460 # H LIG
425 108 6 0.186000 20.305000 18.743999 21.955460 # H LIG
426 108 9 -0.752000 6.149000 39.292999 22.550461 # Ob LIG
427 108 9 -0.752000 19.205999 16.677999 22.550461 # Ob LIG
428 108 8 -0.899000 4.882000 38.423000 20.933460 # Oa LIG
429 108 8 -0.899000 17.938000 15.808000 20.933460 # Oa LIG
430 108 2 -0.314000 6.959000 42.521000 18.773460 # Cb LIG
431 108 2 -0.314000 20.016001 19.906000 18.773460 # Cb LIG
432 108 3 0.456000 7.384000 42.484001 20.140461 # Cc LIG
433 108 3 0.456000 20.441000 19.868999 20.140461 # Cc LIG
434 108 4 -0.234000 6.125000 41.509998 18.277460 # Cd LIG
435 108 4 -0.234000 19.181000 18.895000 18.277460 # Cd LIG
436 108 8 -0.899000 8.175000 44.499001 18.260460 # Oa LIG
437 108 8 -0.899000 21.232000 21.884001 18.260460 # Oa LIG
438 108 10 -0.903000 8.183000 43.410000 20.716461 # Oc LIG
439 108 10 -0.903000 21.240000 20.795000 20.716461 # Oc LIG
440 108 10 -0.903000 5.668000 36.330002 23.088459 # Oc LIG
441 108 10 -0.903000 18.725000 13.715000 23.088459 # Oc LIG
442 108 1 0.900000 7.353000 43.598000 17.833460 # Ca LIG
443 108 1 0.900000 20.409000 20.983000 17.833460 # Ca LIG
444 108 9 -0.752000 6.908000 43.627998 23.559460 # Ob LIG
445 108 9 -0.752000 19.965000 21.013000 23.559460 # Ob LIG
446 108 8 -0.899000 9.602000 45.137001 22.871460 # Oa LIG
447 108 8 -0.899000 22.659000 22.521999 22.871460 # Oa LIG
448 108 8 -0.899000 4.721000 36.868000 18.627460 # Oa LIG
449 108 8 -0.899000 17.778000 14.253000 18.627460 # Oa LIG
450 108 8 -0.899000 3.455000 37.785000 23.238461 # Oa LIG
451 108 8 -0.899000 16.511000 15.170000 23.238461 # Oa LIG
452 108 10 -0.903000 2.515000 22.156000 23.088459 # Oc LIG
453 108 10 -0.903000 15.572000 44.771000 23.088459 # Oc LIG
454 108 3 0.456000 1.314000 22.385000 23.664459 # Cc LIG
455 108 3 0.456000 14.371000 45.000000 23.664459 # Cc LIG
456 108 1 0.900000 10.794000 44.875000 22.444460 # Ca LIG
457 108 1 0.900000 23.851000 22.260000 22.444460 # Ca LIG
458 108 2 -0.314000 11.924000 45.073002 23.384460 # Cb LIG
459 108 2 -0.314000 24.980000 22.458000 23.384460 # Cb LIG
460 108 4 -0.234000 0.159000 22.240999 22.889460 # Cd LIG
461 108 4 -0.234000 13.216000 44.855999 22.889460 # Cd LIG
462 108 6 0.186000 0.271000 21.941000 21.849461 # H LIG
463 108 6 0.186000 13.328000 44.556000 21.849461 # H LIG
464 108 9 -0.752000 10.990000 44.474998 21.254459 # Ob LIG
465 108 9 -0.752000 24.047001 21.860001 21.254459 # Ob LIG
466 108 3 0.456000 6.070000 35.174999 23.664459 # Cc LIG
467 108 3 0.456000 19.127001 12.560000 23.664459 # Cc LIG
468 108 1 0.900000 7.967000 32.139999 22.444460 # Ca LIG
469 108 1 0.900000 21.024000 9.525000 22.444460 # Ca LIG
470 108 2 -0.314000 7.231000 33.020000 23.384460 # Cb LIG
471 108 2 -0.314000 20.288000 10.405000 23.384460 # Cb LIG
472 108 4 -0.234000 6.773000 34.248001 22.889460 # Cd LIG
473 108 4 -0.234000 19.830000 11.633000 22.889460 # Cd LIG
474 108 6 0.186000 6.977000 34.494999 21.849461 # H LIG
475 108 6 0.186000 20.033001 11.880000 21.849461 # H LIG
476 108 9 -0.752000 8.216000 32.509998 21.254459 # Ob LIG
477 108 9 -0.752000 21.273001 9.895000 21.254459 # Ob LIG
478 108 10 -0.903000 10.541000 30.612000 20.716461 # Oc LIG
479 108 10 -0.903000 23.598000 7.997000 20.716461 # Oc LIG
480 108 1 0.900000 5.090000 35.705002 19.055460 # Ca LIG
481 108 1 0.900000 18.146000 13.090000 19.055460 # Ca LIG
482 108 2 -0.314000 5.826000 34.825001 18.115459 # Cb LIG
483 108 2 -0.314000 18.882000 12.210000 18.115459 # Cb LIG
484 108 4 -0.234000 6.284000 33.597000 18.610460 # Cd LIG
485 108 4 -0.234000 19.341000 10.982000 18.610460 # Cd LIG
486 108 6 0.186000 6.080000 33.349998 19.650459 # H LIG
487 108 6 0.186000 19.136999 10.735000 19.650459 # H LIG
488 108 9 -0.752000 4.841000 35.334999 20.245461 # Ob LIG
489 108 9 -0.752000 17.898001 12.720000 20.245461 # Ob LIG
490 108 10 -0.903000 2.515000 37.233002 20.783461 # Oc LIG
491 108 10 -0.903000 15.572000 14.618000 20.783461 # Oc LIG
492 108 9 -0.752000 2.067000 38.446999 17.939461 # Ob LIG
493 108 9 -0.752000 15.124000 15.832000 17.939461 # Ob LIG
494 108 1 0.900000 2.263000 38.046001 23.666460 # Ca LIG
495 108 1 0.900000 15.320000 15.431000 23.666460 # Ca LIG
496 108 2 -0.314000 1.133000 37.848999 22.726460 # Cb LIG
497 108 2 -0.314000 14.190000 15.234000 22.726460 # Cb LIG
498 108 3 0.456000 1.314000 37.462002 21.358459 # Cc LIG
499 108 3 0.456000 14.371000 14.847000 21.358459 # Cc LIG
500 108 4 -0.234000 12.898000 15.451000 23.221460 # Cd LIG
501 108 4 -0.234000 25.954000 38.066002 23.221460 # Cd LIG
502 108 6 0.186000 12.785000 15.751000 17.344460 # H LIG
503 108 6 0.186000 25.841999 38.366001 17.344460 # H LIG
504 108 1 0.900000 10.794000 14.722000 20.138460 # Ca LIG
505 108 1 0.900000 23.851000 37.337002 20.138460 # Ca LIG
506 108 2 -0.314000 11.924000 14.919000 21.078461 # Cb LIG
507 108 2 -0.314000 24.980000 37.534000 21.078461 # Cb LIG
508 108 3 0.456000 11.743000 15.306000 22.446461 # Cc LIG
509 108 3 0.456000 24.799000 37.921001 22.446461 # Cc LIG
510 108 4 -0.234000 0.159000 37.317001 20.583460 # Cd LIG
511 108 4 -0.234000 13.216000 14.702000 20.583460 # Cd LIG
512 108 6 0.186000 0.272000 37.016998 19.543461 # H LIG
513 108 6 0.186000 13.328000 14.402000 19.543461 # H LIG
514 108 9 -0.752000 10.990000 14.322000 18.948460 # Ob LIG
515 108 9 -0.752000 24.047001 36.937000 18.948460 # Ob LIG
516 108 10 -0.903000 10.541000 15.535000 23.021460 # Oc LIG
517 108 10 -0.903000 23.598000 38.150002 23.021460 # Oc LIG
518 108 9 -0.752000 4.841000 5.182000 17.939461 # Ob LIG
519 108 9 -0.752000 17.898001 27.797001 17.939461 # Ob LIG
520 108 10 -0.903000 2.515000 7.080000 18.477459 # Oc LIG
521 108 10 -0.903000 15.572000 29.695000 18.477459 # Oc LIG
522 108 1 0.900000 5.090000 5.552000 23.666460 # Ca LIG
523 108 1 0.900000 18.146000 28.167000 23.666460 # Ca LIG
524 108 2 -0.314000 5.826000 4.672000 22.726460 # Cb LIG