LAMMPS data file. CGCMM style. atom_style full generated by VMD/TopoTools v1.5 on Sun Mar 05 19:09:38 PST 2017
 1307 atoms
 0 bonds
 0 angles
 0 dihedrals
 0 impropers
 10 atom types
 0 bond types
 0 angle types
 0 dihedral types
 0 improper types
 0.444700 26.558700  xlo xhi
 0.314250 45.544250  ylo yhi
 -0.401771 27.265229  zlo zhi

# Pair Coeffs
#
# 1  CH4
# 2  Ca
# 3  Cb
# 4  Cc
# 5  Cd
# 6  H
# 7  Mg
# 8  Oa
# 9  Ob
# 10  Oc

 Masses

 1 16.040001 # CH4
 2 12.011000 # Ca
 3 12.011000 # Cb
 4 12.011000 # Cc
 5 12.011000 # Cd
 6 1.008000 # H
 7 24.305000 # Mg
 8 15.999000 # Oa
 9 15.999000 # Ob
 10 15.999000 # Oc

 Atoms

1 1 1 0.000000 26.114401 45.230499 18.445000 # CH4 
2 1 1 0.000000 26.114401 45.230499 0.000000 # CH4 
3 1 1 0.000000 26.114401 45.230499 9.222000 # CH4 
4 1 1 0.000000 26.114401 22.614500 18.445000 # CH4 
5 1 1 0.000000 26.114401 22.614500 0.000000 # CH4 
6 1 1 0.000000 26.114401 22.614500 9.222000 # CH4 
7 1 1 0.000000 13.056400 45.230499 18.445000 # CH4 
8 1 1 0.000000 13.056400 45.230499 0.000000 # CH4 
9 1 1 0.000000 13.056400 45.230499 9.222000 # CH4 
10 1 1 0.000000 13.056400 22.614500 18.445000 # CH4 
11 1 1 0.000000 13.056400 22.614500 0.000000 # CH4 
12 1 7 0.000000 5.314000 7.966000 21.684460 # Mg LIG
13 2 7 0.000000 18.371000 30.580999 21.684460 # Mg LIG
14 3 7 0.000000 4.242000 6.491000 19.378460 # Mg LIG
15 4 7 0.000000 17.299000 29.106001 19.378460 # Mg LIG
16 1 7 0.000000 3.501000 8.158000 23.990459 # Mg LIG
17 2 7 0.000000 16.558001 30.773001 23.990459 # Mg LIG
18 5 7 0.000000 7.743000 14.649000 19.815460 # Mg LIG
19 6 7 0.000000 20.799000 37.264000 19.815460 # Mg LIG
20 7 7 0.000000 8.815000 16.124001 22.120461 # Mg LIG
21 8 7 0.000000 21.872000 38.738998 22.120461 # Mg LIG
22 3 7 0.000000 9.556000 14.457000 17.509460 # Mg LIG
23 4 7 0.000000 22.613001 37.071999 17.509460 # Mg LIG
24 9 7 0.000000 8.815000 31.200001 19.815460 # Mg LIG
25 10 7 0.000000 21.872000 8.585000 19.815460 # Mg LIG
26 11 7 0.000000 9.556000 29.534000 22.120461 # Mg LIG
27 12 7 0.000000 22.613001 6.919000 22.120461 # Mg LIG
28 5 7 0.000000 4.242000 21.568001 23.990459 # Mg LIG
29 13 7 0.000000 17.299000 44.182999 23.990459 # Mg LIG
30 14 7 0.000000 8.815000 1.047000 17.509460 # Mg LIG
31 8 7 0.000000 21.872000 23.662001 17.509460 # Mg LIG
32 9 7 0.000000 5.314000 38.118999 23.990459 # Mg LIG
33 10 7 0.000000 18.371000 15.504000 23.990459 # Mg LIG
34 15 7 0.000000 7.743000 44.801998 22.120461 # Mg LIG
35 16 7 0.000000 20.799000 22.187000 22.120461 # Mg LIG
36 17 7 0.000000 9.556000 44.611000 19.815460 # Mg LIG
37 18 7 0.000000 22.613001 21.996000 19.815460 # Mg LIG
38 19 7 0.000000 3.501000 38.311001 19.378460 # Mg LIG
39 20 7 0.000000 16.558001 15.696000 19.378460 # Mg LIG
40 21 7 0.000000 4.242000 36.645000 21.684460 # Mg LIG
41 22 7 0.000000 17.299000 14.030000 21.684460 # Mg LIG
42 23 7 0.000000 5.314000 23.042999 19.378460 # Mg LIG
43 24 7 0.000000 18.371000 0.428000 19.378460 # Mg LIG
44 25 7 0.000000 3.501000 23.233999 21.684460 # Mg LIG
45 26 7 0.000000 16.558001 0.619000 21.684460 # Mg LIG
46 13 7 0.000000 7.743000 29.726000 17.509460 # Mg LIG
47 14 7 0.000000 20.799000 7.111000 17.509460 # Mg LIG
48 3 2 0.000000 5.704000 9.170000 19.055460 # Ca LIG
49 4 2 0.000000 18.761000 31.785000 19.055460 # Ca LIG
50 27 3 0.000000 6.098000 10.247000 18.115459 # Cb LIG
51 28 3 0.000000 19.155001 32.862000 18.115459 # Cb LIG
52 27 5 0.000000 6.932000 11.258000 18.610460 # Cd LIG
53 28 5 0.000000 19.989000 33.873001 18.610460 # Cd LIG
54 27 6 0.000000 7.248000 11.206000 19.650459 # H LIG
55 28 6 0.000000 20.305000 33.820999 19.650459 # H LIG
56 3 9 0.000000 6.149000 9.140000 20.245461 # Ob LIG
57 4 9 0.000000 19.205999 31.754999 20.245461 # Ob LIG
58 3 8 0.000000 4.881000 8.269000 18.627460 # Oa LIG
59 4 8 0.000000 17.938000 30.884001 18.627460 # Oa LIG
60 27 10 0.000000 8.183000 13.257000 18.410460 # Oc LIG
61 28 10 0.000000 21.240000 35.872002 18.410460 # Oc LIG
62 1 8 0.000000 4.721000 6.715000 23.238461 # Oa LIG
63 2 8 0.000000 17.777000 29.330000 23.238461 # Oa LIG
64 1 8 0.000000 3.455000 7.631000 20.933460 # Oa LIG
65 2 8 0.000000 16.511000 30.246000 20.933460 # Oa LIG
66 29 10 0.000000 4.874000 9.358000 23.088459 # Oc LIG
67 30 10 0.000000 17.930000 31.973000 23.088459 # Oc LIG
68 31 10 0.000000 5.668000 6.177000 20.783461 # Oc LIG
69 32 10 0.000000 18.725000 28.792000 20.783461 # Oc LIG
70 29 4 0.000000 5.672000 10.284000 23.664459 # Cc LIG
71 30 4 0.000000 18.729000 32.898998 23.664459 # Cc LIG
72 7 2 0.000000 7.353000 13.445000 22.444460 # Ca LIG
73 8 2 0.000000 20.409000 36.060001 22.444460 # Ca LIG
74 29 3 0.000000 6.959000 12.368000 23.384460 # Cb LIG
75 30 3 0.000000 20.016001 34.983002 23.384460 # Cb LIG
76 27 4 0.000000 7.384000 12.331000 17.835461 # Cc LIG
77 28 4 0.000000 20.441000 34.945999 17.835461 # Cc LIG
78 29 5 0.000000 6.125000 11.357000 22.889460 # Cd LIG
79 30 5 0.000000 19.181000 33.972000 22.889460 # Cd LIG
80 29 6 0.000000 5.809000 11.409000 21.849461 # H LIG
81 30 6 0.000000 18.865999 34.023998 21.849461 # H LIG
82 7 9 0.000000 6.908000 13.475000 21.254459 # Ob LIG
83 8 9 0.000000 19.965000 36.090000 21.254459 # Ob LIG
84 7 8 0.000000 8.175000 14.346000 22.871460 # Oa LIG
85 8 8 0.000000 21.232000 36.960999 22.871460 # Oa LIG
86 3 8 0.000000 8.336000 15.900000 18.260460 # Oa LIG
87 4 8 0.000000 21.393000 38.514999 18.260460 # Oa LIG
88 5 8 0.000000 9.602000 14.984000 20.566460 # Oa LIG
89 6 8 0.000000 22.659000 37.598999 20.566460 # Oa LIG
90 32 10 0.000000 7.389000 16.438000 20.716461 # Oc LIG
91 32 10 0.000000 20.445999 39.053001 20.716461 # Oc LIG
92 13 8 0.000000 9.602000 30.059999 18.260460 # Oa LIG
93 14 8 0.000000 22.659000 7.445000 18.260460 # Oa LIG
94 11 8 0.000000 8.336000 30.976999 22.871460 # Oa LIG
95 12 8 0.000000 21.393000 8.362000 22.871460 # Oa LIG
96 25 8 0.000000 4.721000 21.791000 20.933460 # Oa LIG
97 32 8 0.000000 17.777000 44.405998 20.933460 # Oa LIG
98 32 10 0.000000 5.668000 21.254000 18.477459 # Oc LIG
99 32 10 0.000000 18.725000 43.868999 18.477459 # Oc LIG
100 32 8 0.000000 8.336000 0.824000 20.566460 # Oa LIG
101 18 8 0.000000 21.393000 23.438999 20.566460 # Oa LIG
102 32 10 0.000000 7.389000 1.361000 23.021460 # Oc LIG
103 32 10 0.000000 20.445999 23.976000 23.021460 # Oc LIG
104 32 10 0.000000 4.874000 39.512001 18.477459 # Oc LIG
105 32 10 0.000000 17.930000 16.896999 18.477459 # Oc LIG
106 21 2 0.000000 5.704000 39.324001 21.360460 # Ca LIG
107 22 2 0.000000 18.761000 16.709000 21.360460 # Ca LIG
108 32 3 0.000000 6.098000 40.401001 20.421459 # Cb LIG
109 32 3 0.000000 19.155001 17.785999 20.421459 # Cb LIG
110 32 4 0.000000 5.672000 40.438000 19.053459 # Cc LIG
111 32 4 0.000000 18.729000 17.823000 19.053459 # Cc LIG
112 32 5 0.000000 6.932000 41.410999 20.916460 # Cd LIG
113 32 5 0.000000 19.989000 18.796000 20.916460 # Cd LIG
114 32 6 0.000000 7.248000 41.359001 21.955460 # H LIG
115 32 6 0.000000 20.305000 18.743999 21.955460 # H LIG
116 21 9 0.000000 6.149000 39.292999 22.550461 # Ob LIG
117 22 9 0.000000 19.205999 16.677999 22.550461 # Ob LIG
118 21 8 0.000000 4.882000 38.423000 20.933460 # Oa LIG
119 22 8 0.000000 17.938000 15.808000 20.933460 # Oa LIG
120 32 3 0.000000 6.959000 42.521000 18.773460 # Cb LIG
121 32 3 0.000000 20.016001 19.906000 18.773460 # Cb LIG
122 32 4 0.000000 7.384000 42.484001 20.140461 # Cc LIG
123 32 4 0.000000 20.441000 19.868999 20.140461 # Cc LIG
124 32 5 0.000000 6.125000 41.509998 18.277460 # Cd LIG
125 32 5 0.000000 19.181000 18.895000 18.277460 # Cd LIG
126 32 8 0.000000 8.175000 44.499001 18.260460 # Oa LIG
127 8 8 0.000000 21.232000 21.884001 18.260460 # Oa LIG
128 32 10 0.000000 8.183000 43.410000 20.716461 # Oc LIG
129 32 10 0.000000 21.240000 20.795000 20.716461 # Oc LIG
130 32 10 0.000000 5.668000 36.330002 23.088459 # Oc LIG
131 32 10 0.000000 18.725000 13.715000 23.088459 # Oc LIG
132 32 2 0.000000 7.353000 43.598000 17.833460 # Ca LIG
133 8 2 0.000000 20.409000 20.983000 17.833460 # Ca LIG
134 33 9 0.000000 6.908000 43.627998 23.559460 # Ob LIG
135 34 9 0.000000 19.965000 21.013000 23.559460 # Ob LIG
136 15 8 0.000000 9.602000 45.137001 22.871460 # Oa LIG
137 16 8 0.000000 22.659000 22.521999 22.871460 # Oa LIG
138 19 8 0.000000 4.721000 36.868000 18.627460 # Oa LIG
139 20 8 0.000000 17.778000 14.253000 18.627460 # Oa LIG
140 9 8 0.000000 3.455000 37.785000 23.238461 # Oa LIG
141 10 8 0.000000 16.511000 15.170000 23.238461 # Oa LIG
142 32 10 0.000000 2.515000 22.156000 23.088459 # Oc LIG
143 32 10 0.000000 15.572000 44.771000 23.088459 # Oc LIG
144 32 4 0.000000 1.314000 22.385000 23.664459 # Cc LIG
145 32 4 0.000000 14.371000 45.000000 23.664459 # Cc LIG
146 15 2 0.000000 10.794000 44.875000 22.444460 # Ca LIG
147 16 2 0.000000 23.851000 22.260000 22.444460 # Ca LIG
148 32 3 0.000000 11.924000 45.073002 23.384460 # Cb LIG
149 16 3 0.000000 24.980000 22.458000 23.384460 # Cb LIG
150 32 5 0.000000 0.159000 22.240999 22.889460 # Cd LIG
151 32 5 0.000000 13.216000 44.855999 22.889460 # Cd LIG
152 32 6 0.000000 0.271000 21.941000 21.849461 # H LIG
153 32 6 0.000000 13.328000 44.556000 21.849461 # H LIG
154 15 9 0.000000 10.990000 44.474998 21.254459 # Ob LIG
155 16 9 0.000000 24.047001 21.860001 21.254459 # Ob LIG
156 32 4 0.000000 6.070000 35.174999 23.664459 # Cc LIG
157 32 4 0.000000 19.127001 12.560000 23.664459 # Cc LIG
158 11 2 0.000000 7.967000 32.139999 22.444460 # Ca LIG
159 12 2 0.000000 21.024000 9.525000 22.444460 # Ca LIG
160 32 3 0.000000 7.231000 33.020000 23.384460 # Cb LIG
161 32 3 0.000000 20.288000 10.405000 23.384460 # Cb LIG
162 32 5 0.000000 6.773000 34.248001 22.889460 # Cd LIG
163 32 5 0.000000 19.830000 11.633000 22.889460 # Cd LIG
164 32 6 0.000000 6.977000 34.494999 21.849461 # H LIG
165 32 6 0.000000 20.033001 11.880000 21.849461 # H LIG
166 11 9 0.000000 8.216000 32.509998 21.254459 # Ob LIG
167 12 9 0.000000 21.273001 9.895000 21.254459 # Ob LIG
168 32 10 0.000000 10.541000 30.612000 20.716461 # Oc LIG
169 32 10 0.000000 23.598000 7.997000 20.716461 # Oc LIG
170 19 2 0.000000 5.090000 35.705002 19.055460 # Ca LIG
171 20 2 0.000000 18.146000 13.090000 19.055460 # Ca LIG
172 32 3 0.000000 5.826000 34.825001 18.115459 # Cb LIG
173 32 3 0.000000 18.882000 12.210000 18.115459 # Cb LIG
174 32 5 0.000000 6.284000 33.597000 18.610460 # Cd LIG
175 32 5 0.000000 19.341000 10.982000 18.610460 # Cd LIG
176 32 6 0.000000 6.080000 33.349998 19.650459 # H LIG
177 32 6 0.000000 19.136999 10.735000 19.650459 # H LIG
178 19 9 0.000000 4.841000 35.334999 20.245461 # Ob LIG
179 20 9 0.000000 17.898001 12.720000 20.245461 # Ob LIG
180 32 10 0.000000 2.515000 37.233002 20.783461 # Oc LIG
181 32 10 0.000000 15.572000 14.618000 20.783461 # Oc LIG
182 35 9 0.000000 2.067000 38.446999 17.939461 # Ob LIG
183 36 9 0.000000 15.124000 15.832000 17.939461 # Ob LIG
184 9 2 0.000000 2.263000 38.046001 23.666460 # Ca LIG
185 10 2 0.000000 15.320000 15.431000 23.666460 # Ca LIG
186 32 3 0.000000 1.133000 37.848999 22.726460 # Cb LIG
187 32 3 0.000000 14.190000 15.234000 22.726460 # Cb LIG
188 32 4 0.000000 1.314000 37.462002 21.358459 # Cc LIG
189 32 4 0.000000 14.371000 14.847000 21.358459 # Cc LIG
190 32 5 0.000000 12.898000 15.451000 23.221460 # Cd LIG
191 32 5 0.000000 25.954000 38.066002 23.221460 # Cd LIG
192 37 6 0.000000 12.785000 15.751000 17.344460 # H LIG
193 38 6 0.000000 25.841999 38.366001 17.344460 # H LIG
194 5 2 0.000000 10.794000 14.722000 20.138460 # Ca LIG
195 6 2 0.000000 23.851000 37.337002 20.138460 # Ca LIG
196 32 3 0.000000 11.924000 14.919000 21.078461 # Cb LIG
197 32 3 0.000000 24.980000 37.534000 21.078461 # Cb LIG
198 32 4 0.000000 11.743000 15.306000 22.446461 # Cc LIG
199 32 4 0.000000 24.799000 37.921001 22.446461 # Cc LIG
200 32 5 0.000000 0.159000 37.317001 20.583460 # Cd LIG
201 32 5 0.000000 13.216000 14.702000 20.583460 # Cd LIG
202 32 6 0.000000 0.272000 37.016998 19.543461 # H LIG
203 32 6 0.000000 13.328000 14.402000 19.543461 # H LIG
204 5 9 0.000000 10.990000 14.322000 18.948460 # Ob LIG
205 6 9 0.000000 24.047001 36.937000 18.948460 # Ob LIG
206 32 10 0.000000 10.541000 15.535000 23.021460 # Oc LIG
207 32 10 0.000000 23.598000 38.150002 23.021460 # Oc LIG
208 39 9 0.000000 4.841000 5.182000 17.939461 # Ob LIG
209 40 9 0.000000 17.898001 27.797001 17.939461 # Ob LIG
210 32 10 0.000000 2.515000 7.080000 18.477459 # Oc LIG
211 32 10 0.000000 15.572000 29.695000 18.477459 # Oc LIG
212 1 2 0.000000 5.090000 5.552000 23.666460 # Ca LIG
213 2 2 0.000000 18.146000 28.167000 23.666460 # Ca LIG
214 32 3 0.000000 5.826000 4.672000 22.726460 # Cb LIG
215 32 3 0.000000 18.882000 27.287001 22.726460 # Cb LIG
216 31 4 0.000000 6.070000 5.022000 21.358459 # Cc LIG
217 32 4 0.000000 19.127001 27.636999 21.358459 # Cc LIG
218 32 5 0.000000 6.284000 3.444000 23.221460 # Cd LIG
219 32 5 0.000000 19.340000 26.059000 23.221460 # Cd LIG
220 41 6 0.000000 6.080000 3.197000 17.344460 # H LIG
221 42 6 0.000000 19.136999 25.812000 17.344460 # H LIG
222 32 2 0.000000 7.967000 1.987000 20.138460 # Ca LIG
223 18 2 0.000000 21.024000 24.601999 20.138460 # Ca LIG
224 31 3 0.000000 7.231000 2.866000 21.078461 # Cb LIG
225 32 3 0.000000 20.288000 25.481001 21.078461 # Cb LIG
226 32 4 0.000000 6.987000 2.516000 22.446461 # Cc LIG
227 32 4 0.000000 20.042999 25.131001 22.446461 # Cc LIG
228 31 5 0.000000 6.773000 4.094000 20.583460 # Cd LIG
229 32 5 0.000000 19.830000 26.709000 20.583460 # Cd LIG
230 31 6 0.000000 6.977000 4.341000 19.543461 # H LIG
231 32 6 0.000000 20.033001 26.955999 19.543461 # H LIG
232 32 9 0.000000 8.216000 2.357000 18.948460 # Ob LIG
233 18 9 0.000000 21.273001 24.972000 18.948460 # Ob LIG
234 1 2 0.000000 2.263000 7.893000 21.360460 # Ca LIG
235 2 2 0.000000 15.320000 30.507999 21.360460 # Ca LIG
236 32 3 0.000000 1.133000 7.696000 20.421459 # Cb LIG
237 32 3 0.000000 14.190000 30.311001 20.421459 # Cb LIG
238 32 4 0.000000 1.314000 7.309000 19.053459 # Cc LIG
239 32 4 0.000000 14.371000 29.924000 19.053459 # Cc LIG
240 32 5 0.000000 12.898000 30.528000 20.916460 # Cd LIG
241 32 5 0.000000 25.954000 7.913000 20.916460 # Cd LIG
242 32 6 0.000000 12.785000 30.827999 21.955460 # H LIG
243 32 6 0.000000 25.841999 8.213000 21.955460 # H LIG
244 1 9 0.000000 2.067000 8.293000 22.550461 # Ob LIG
245 2 9 0.000000 15.124000 30.908001 22.550461 # Ob LIG
246 32 3 0.000000 11.924000 29.996000 18.773460 # Cb LIG
247 32 3 0.000000 24.980000 7.381000 18.773460 # Cb LIG
248 32 4 0.000000 11.743000 30.382999 20.140461 # Cc LIG
249 32 4 0.000000 24.799000 7.768000 20.140461 # Cc LIG
250 32 5 0.000000 0.159000 7.164000 18.277460 # Cd LIG
251 32 5 0.000000 13.216000 29.778999 18.277460 # Cd LIG
252 13 2 0.000000 10.794000 29.799000 17.833460 # Ca LIG
253 14 2 0.000000 23.851000 7.184000 17.833460 # Ca LIG
254 43 9 0.000000 10.990000 29.398001 23.559460 # Ob LIG
255 44 9 0.000000 24.047001 6.783000 23.559460 # Ob LIG
256 25 2 0.000000 5.090000 20.628000 21.360460 # Ca LIG
257 32 2 0.000000 18.146000 43.243000 21.360460 # Ca LIG
258 32 3 0.000000 5.826000 19.749001 20.421459 # Cb LIG
259 32 3 0.000000 18.882000 42.363998 20.421459 # Cb LIG
260 32 4 0.000000 6.070000 20.099001 19.053459 # Cc LIG
261 32 4 0.000000 19.127001 42.714001 19.053459 # Cc LIG
262 32 5 0.000000 6.284000 18.521000 20.916460 # Cd LIG
263 32 5 0.000000 19.341000 41.136002 20.916460 # Cd LIG
264 32 6 0.000000 6.080000 18.274000 21.955460 # H LIG
265 32 6 0.000000 19.136999 40.889000 21.955460 # H LIG
266 25 9 0.000000 4.841000 20.257999 22.550461 # Ob LIG
267 32 9 0.000000 17.898001 42.873001 22.550461 # Ob LIG
268 32 3 0.000000 7.231000 17.943001 18.773460 # Cb LIG
269 32 3 0.000000 20.288000 40.557999 18.773460 # Cb LIG
270 32 4 0.000000 6.987000 17.593000 20.140461 # Cc LIG
271 32 4 0.000000 20.042999 40.208000 20.140461 # Cc LIG
272 32 5 0.000000 6.773000 19.171000 18.277460 # Cd LIG
273 32 5 0.000000 19.830000 41.785999 18.277460 # Cd LIG
274 3 2 0.000000 7.967000 17.063000 17.833460 # Ca LIG
275 4 2 0.000000 21.024000 39.678001 17.833460 # Ca LIG
276 45 9 0.000000 8.216000 17.433001 23.559460 # Ob LIG
277 46 9 0.000000 21.273001 40.048000 23.559460 # Ob LIG
278 47 9 0.000000 6.149000 24.216999 17.939461 # Ob LIG
279 48 9 0.000000 19.205999 1.602000 17.939461 # Ob LIG
280 23 8 0.000000 3.455000 22.708000 18.627460 # Oa LIG
281 24 8 0.000000 16.511000 0.093000 18.627460 # Oa LIG
282 32 10 0.000000 4.874000 24.434999 20.783461 # Oc LIG
283 32 10 0.000000 17.930000 1.820000 20.783461 # Oc LIG
284 5 2 0.000000 5.704000 24.247000 23.666460 # Ca LIG
285 32 2 0.000000 18.761000 1.632000 23.666460 # Ca LIG
286 32 3 0.000000 6.098000 25.323999 22.726460 # Cb LIG
287 32 3 0.000000 19.155001 2.709000 22.726460 # Cb LIG
288 32 4 0.000000 5.672000 25.361000 21.358459 # Cc LIG
289 32 4 0.000000 18.729000 2.746000 21.358459 # Cc LIG
290 32 5 0.000000 6.932000 26.334999 23.221460 # Cd LIG
291 32 5 0.000000 19.989000 3.720000 23.221460 # Cd LIG
292 49 6 0.000000 7.248000 26.282000 17.344460 # H LIG
293 50 6 0.000000 20.305000 3.667000 17.344460 # H LIG
294 5 8 0.000000 4.881000 23.346001 23.238461 # Oa LIG
295 32 8 0.000000 17.938000 0.731000 23.238461 # Oa LIG
296 9 2 0.000000 7.353000 28.521000 20.138460 # Ca LIG
297 10 2 0.000000 20.409000 5.906000 20.138460 # Ca LIG
298 32 3 0.000000 6.959000 27.444000 21.078461 # Cb LIG
299 32 3 0.000000 20.016001 4.829000 21.078461 # Cb LIG
300 32 4 0.000000 7.384000 27.407000 22.446461 # Cc LIG
301 32 4 0.000000 20.441000 4.792000 22.446461 # Cc LIG
302 32 5 0.000000 6.125000 26.434000 20.583460 # Cd LIG
303 32 5 0.000000 19.181000 3.819000 20.583460 # Cd LIG
304 32 6 0.000000 5.809000 26.486000 19.543461 # H LIG
305 32 6 0.000000 18.865999 3.871000 19.543461 # H LIG
306 9 9 0.000000 6.908000 28.552000 18.948460 # Ob LIG
307 10 9 0.000000 19.965000 5.937000 18.948460 # Ob LIG
308 9 8 0.000000 8.175000 29.422001 20.566460 # Oa LIG
309 10 8 0.000000 21.232000 6.807000 20.566460 # Oa LIG
310 32 10 0.000000 8.183000 28.333000 23.021460 # Oc LIG
311 32 10 0.000000 21.240000 5.718000 23.021460 # Oc LIG
312 23 2 0.000000 2.263000 22.969999 19.055460 # Ca LIG
313 24 2 0.000000 15.320000 0.355000 19.055460 # Ca LIG
314 23 3 0.000000 1.133000 22.771999 18.115459 # Cb LIG
315 32 3 0.000000 14.190000 0.157000 18.115459 # Cb LIG
316 32 5 0.000000 12.898000 0.374000 18.610460 # Cd LIG
317 32 5 0.000000 25.954000 22.989000 18.610460 # Cd LIG
318 32 6 0.000000 12.785000 0.674000 19.650459 # H LIG
319 32 6 0.000000 25.841999 23.289000 19.650459 # H LIG
320 23 9 0.000000 2.067000 23.370001 20.245461 # Ob LIG
321 24 9 0.000000 15.124000 0.755000 20.245461 # Ob LIG
322 32 10 0.000000 7.389000 31.514999 18.410460 # Oc LIG
323 32 10 0.000000 20.445999 8.900000 18.410460 # Oc LIG
324 51 6 0.000000 5.809000 41.563000 24.154461 # H LIG
325 52 6 0.000000 18.865999 18.948000 24.154461 # H LIG
326 32 10 0.000000 10.541000 0.459000 18.410460 # Oc LIG
327 32 10 0.000000 23.598000 23.073999 18.410460 # Oc LIG
328 32 4 0.000000 11.743000 0.230000 17.835461 # Cc LIG
329 32 4 0.000000 24.799999 22.844999 17.835461 # Cc LIG
330 32 4 0.000000 6.986000 32.669998 17.835461 # Cc LIG
331 32 4 0.000000 20.042999 10.055000 17.835461 # Cc LIG
332 53 6 0.000000 0.271000 6.864000 24.154461 # H LIG
333 54 6 0.000000 13.328000 29.479000 24.154461 # H LIG
334 55 6 0.000000 6.977000 19.417999 24.154461 # H LIG
335 56 6 0.000000 20.033001 42.033001 24.154461 # H LIG
336 1 7 0.000000 5.314000 7.966000 0.934500 # Mg LIG
337 2 7 0.000000 18.371000 30.580999 0.934500 # Mg LIG
338 3 7 0.000000 4.242000 6.491000 26.295460 # Mg LIG
339 4 7 0.000000 17.299000 29.106001 26.295460 # Mg LIG
340 1 7 0.000000 3.501000 8.158000 3.240500 # Mg LIG
341 2 7 0.000000 16.558001 30.773001 3.240500 # Mg LIG
342 5 7 0.000000 7.743000 14.649000 26.732460 # Mg LIG
343 6 7 0.000000 20.799000 37.264000 26.732460 # Mg LIG
344 7 7 0.000000 8.815000 16.124001 1.370500 # Mg LIG
345 8 7 0.000000 21.872000 38.738998 1.370500 # Mg LIG
346 3 7 0.000000 9.556000 14.457000 24.426460 # Mg LIG
347 4 7 0.000000 22.613001 37.071999 24.426460 # Mg LIG
348 9 7 0.000000 8.815000 31.200001 26.732460 # Mg LIG
349 10 7 0.000000 21.872000 8.585000 26.732460 # Mg LIG
350 11 7 0.000000 9.556000 29.534000 1.370500 # Mg LIG
351 12 7 0.000000 22.613001 6.919000 1.370500 # Mg LIG
352 5 7 0.000000 4.242000 21.568001 3.240500 # Mg LIG
353 13 7 0.000000 17.299000 44.182999 3.240500 # Mg LIG
354 14 7 0.000000 8.815000 1.047000 24.426460 # Mg LIG
355 8 7 0.000000 21.872000 23.662001 24.426460 # Mg LIG
356 9 7 0.000000 5.314000 38.118999 3.240500 # Mg LIG
357 10 7 0.000000 18.371000 15.504000 3.240500 # Mg LIG
358 15 7 0.000000 7.743000 44.801998 1.370500 # Mg LIG
359 16 7 0.000000 20.799000 22.187000 1.370500 # Mg LIG
360 17 7 0.000000 9.556000 44.611000 26.732460 # Mg LIG
361 18 7 0.000000 22.613001 21.996000 26.732460 # Mg LIG
362 19 7 0.000000 3.501000 38.311001 26.295460 # Mg LIG
363 20 7 0.000000 16.558001 15.696000 26.295460 # Mg LIG
364 21 7 0.000000 4.242000 36.645000 0.934500 # Mg LIG
365 22 7 0.000000 17.299000 14.030000 0.934500 # Mg LIG
366 23 7 0.000000 5.314000 23.042999 26.295460 # Mg LIG
367 24 7 0.000000 18.371000 0.428000 26.295460 # Mg LIG
368 25 7 0.000000 3.501000 23.233999 0.934500 # Mg LIG
369 26 7 0.000000 16.558001 0.619000 0.934500 # Mg LIG
370 13 7 0.000000 7.743000 29.726000 24.426460 # Mg LIG
371 14 7 0.000000 20.799000 7.111000 24.426460 # Mg LIG
372 3 2 0.000000 5.704000 9.170000 25.972460 # Ca LIG
373 4 2 0.000000 18.761000 31.785000 25.972460 # Ca LIG
374 27 3 0.000000 6.098000 10.247000 25.032459 # Cb LIG
375 28 3 0.000000 19.155001 32.862000 25.032459 # Cb LIG
376 27 5 0.000000 6.932000 11.258000 25.527460 # Cd LIG
377 28 5 0.000000 19.989000 33.873001 25.527460 # Cd LIG
378 27 6 0.000000 7.248000 11.206000 26.567459 # H LIG
379 28 6 0.000000 20.305000 33.820999 26.567459 # H LIG
380 3 9 0.000000 6.149000 9.140000 27.162460 # Ob LIG
381 4 9 0.000000 19.205999 31.754999 27.162460 # Ob LIG
382 3 8 0.000000 4.881000 8.269000 25.544460 # Oa LIG
383 4 8 0.000000 17.938000 30.884001 25.544460 # Oa LIG
384 27 10 0.000000 8.183000 13.257000 25.327459 # Oc LIG
385 28 10 0.000000 21.240000 35.872002 25.327459 # Oc LIG
386 1 8 0.000000 4.721000 6.715000 2.488500 # Oa LIG
387 2 8 0.000000 17.777000 29.330000 2.488500 # Oa LIG
388 1 8 0.000000 3.455000 7.631000 0.183500 # Oa LIG
389 2 8 0.000000 16.511000 30.246000 0.183500 # Oa LIG
390 29 10 0.000000 4.874000 9.358000 2.338500 # Oc LIG
391 30 10 0.000000 17.930000 31.973000 2.338500 # Oc LIG
392 31 10 0.000000 5.668000 6.177000 0.033500 # Oc LIG
393 32 10 0.000000 18.725000 28.792000 0.033500 # Oc LIG
394 29 4 0.000000 5.672000 10.284000 2.914500 # Cc LIG
395 30 4 0.000000 18.729000 32.898998 2.914500 # Cc LIG
396 7 2 0.000000 7.353000 13.445000 1.694500 # Ca LIG
397 8 2 0.000000 20.409000 36.060001 1.694500 # Ca LIG
398 29 3 0.000000 6.959000 12.368000 2.634500 # Cb LIG
399 30 3 0.000000 20.016001 34.983002 2.634500 # Cb LIG
400 27 4 0.000000 7.384000 12.331000 24.752460 # Cc LIG
401 28 4 0.000000 20.441000 34.945999 24.752460 # Cc LIG
402 29 5 0.000000 6.125000 11.357000 2.139500 # Cd LIG
403 30 5 0.000000 19.181000 33.972000 2.139500 # Cd LIG
404 29 6 0.000000 5.809000 11.409000 1.099500 # H LIG
405 30 6 0.000000 18.865999 34.023998 1.099500 # H LIG
406 7 9 0.000000 6.908000 13.475000 0.504500 # Ob LIG
407 8 9 0.000000 19.965000 36.090000 0.504500 # Ob LIG
408 7 8 0.000000 8.175000 14.346000 2.121500 # Oa LIG
409 8 8 0.000000 21.232000 36.960999 2.121500 # Oa LIG
410 3 8 0.000000 8.336000 15.900000 25.177460 # Oa LIG
411 4 8 0.000000 21.393000 38.514999 25.177460 # Oa LIG
412 5 8 0.000000 9.602000 14.984000 27.483459 # Oa LIG
413 6 8 0.000000 22.659000 37.598999 27.483459 # Oa LIG
414 32 10 0.000000 7.389000 16.438000 27.633459 # Oc LIG
415 32 10 0.000000 20.445999 39.053001 27.633459 # Oc LIG
416 13 8 0.000000 9.602000 30.059999 25.177460 # Oa LIG
417 14 8 0.000000 22.659000 7.445000 25.177460 # Oa LIG
418 11 8 0.000000 8.336000 30.976999 2.121500 # Oa LIG
419 12 8 0.000000 21.393000 8.362000 2.121500 # Oa LIG
420 25 8 0.000000 4.721000 21.791000 0.183500 # Oa LIG
421 32 8 0.000000 17.777000 44.405998 0.183500 # Oa LIG
422 32 10 0.000000 5.668000 21.254000 25.394459 # Oc LIG
423 32 10 0.000000 18.725000 43.868999 25.394459 # Oc LIG
424 32 8 0.000000 8.336000 0.824000 27.483459 # Oa LIG
425 18 8 0.000000 21.393000 23.438999 27.483459 # Oa LIG
426 32 10 0.000000 7.389000 1.361000 2.271500 # Oc LIG
427 32 10 0.000000 20.445999 23.976000 2.271500 # Oc LIG
428 32 10 0.000000 4.874000 39.512001 25.394459 # Oc LIG
429 32 10 0.000000 17.930000 16.896999 25.394459 # Oc LIG
430 21 2 0.000000 5.704000 39.324001 0.610500 # Ca LIG
431 22 2 0.000000 18.761000 16.709000 0.610500 # Ca LIG
432 32 3 0.000000 6.098000 40.401001 27.338459 # Cb LIG
433 32 3 0.000000 19.155001 17.785999 27.338459 # Cb LIG
434 32 4 0.000000 5.672000 40.438000 25.970459 # Cc LIG
435 32 4 0.000000 18.729000 17.823000 25.970459 # Cc LIG
436 32 5 0.000000 6.932000 41.410999 0.166500 # Cd LIG
437 32 5 0.000000 19.989000 18.796000 0.166500 # Cd LIG
438 32 6 0.000000 7.248000 41.359001 1.205500 # H LIG
439 32 6 0.000000 20.305000 18.743999 1.205500 # H LIG
440 21 9 0.000000 6.149000 39.292999 1.800500 # Ob LIG
441 22 9 0.000000 19.205999 16.677999 1.800500 # Ob LIG
442 21 8 0.000000 4.882000 38.423000 0.183500 # Oa LIG
443 22 8 0.000000 17.938000 15.808000 0.183500 # Oa LIG
444 32 3 0.000000 6.959000 42.521000 25.690460 # Cb LIG
445 32 3 0.000000 20.016001 19.906000 25.690460 # Cb LIG
446 32 4 0.000000 7.384000 42.484001 27.057461 # Cc LIG
447 32 4 0.000000 20.441000 19.868999 27.057461 # Cc LIG
448 32 5 0.000000 6.125000 41.509998 25.194460 # Cd LIG
449 32 5 0.000000 19.181000 18.895000 25.194460 # Cd LIG
450 32 8 0.000000 8.175000 44.499001 25.177460 # Oa LIG
451 8 8 0.000000 21.232000 21.884001 25.177460 # Oa LIG
452 32 10 0.000000 8.183000 43.410000 27.633459 # Oc LIG
453 32 10 0.000000 21.240000 20.795000 27.633459 # Oc LIG
454 32 10 0.000000 5.668000 36.330002 2.338500 # Oc LIG
455 32 10 0.000000 18.725000 13.715000 2.338500 # Oc LIG
456 32 2 0.000000 7.353000 43.598000 24.750460 # Ca LIG
457 8 2 0.000000 20.409000 20.983000 24.750460 # Ca LIG
458 33 9 0.000000 6.908000 43.627998 2.809500 # Ob LIG
459 34 9 0.000000 19.965000 21.013000 2.809500 # Ob LIG
460 15 8 0.000000 9.602000 45.137001 2.121500 # Oa LIG
461 16 8 0.000000 22.659000 22.521999 2.121500 # Oa LIG
462 19 8 0.000000 4.721000 36.868000 25.544460 # Oa LIG
463 20 8 0.000000 17.778000 14.253000 25.544460 # Oa LIG
464 9 8 0.000000 3.455000 37.785000 2.488500 # Oa LIG
465 10 8 0.000000 16.511000 15.170000 2.488500 # Oa LIG
466 32 10 0.000000 2.515000 22.156000 2.338500 # Oc LIG
467 32 10 0.000000 15.572000 44.771000 2.338500 # Oc LIG
468 32 4 0.000000 1.314000 22.385000 2.914500 # Cc LIG
469 32 4 0.000000 14.371000 45.000000 2.914500 # Cc LIG
470 15 2 0.000000 10.794000 44.875000 1.694500 # Ca LIG
471 16 2 0.000000 23.851000 22.260000 1.694500 # Ca LIG
472 32 3 0.000000 11.924000 45.073002 2.634500 # Cb LIG
473 16 3 0.000000 24.980000 22.458000 2.634500 # Cb LIG
474 32 5 0.000000 0.159000 22.240999 2.139500 # Cd LIG
475 32 5 0.000000 13.216000 44.855999 2.139500 # Cd LIG
476 32 6 0.000000 0.271000 21.941000 1.099500 # H LIG
477 32 6 0.000000 13.328000 44.556000 1.099500 # H LIG
478 15 9 0.000000 10.990000 44.474998 0.504500 # Ob LIG
479 16 9 0.000000 24.047001 21.860001 0.504500 # Ob LIG
480 32 4 0.000000 6.070000 35.174999 2.914500 # Cc LIG
481 32 4 0.000000 19.127001 12.560000 2.914500 # Cc LIG
482 11 2 0.000000 7.967000 32.139999 1.694500 # Ca LIG
483 12 2 0.000000 21.024000 9.525000 1.694500 # Ca LIG
484 32 3 0.000000 7.231000 33.020000 2.634500 # Cb LIG
485 32 3 0.000000 20.288000 10.405000 2.634500 # Cb LIG
486 32 5 0.000000 6.773000 34.248001 2.139500 # Cd LIG
487 32 5 0.000000 19.830000 11.633000 2.139500 # Cd LIG
488 32 6 0.000000 6.977000 34.494999 1.099500 # H LIG
489 32 6 0.000000 20.033001 11.880000 1.099500 # H LIG
490 11 9 0.000000 8.216000 32.509998 0.504500 # Ob LIG
491 12 9 0.000000 21.273001 9.895000 0.504500 # Ob LIG
492 32 10 0.000000 10.541000 30.612000 27.633459 # Oc LIG
493 32 10 0.000000 23.598000 7.997000 27.633459 # Oc LIG
494 19 2 0.000000 5.090000 35.705002 25.972460 # Ca LIG
495 20 2 0.000000 18.146000 13.090000 25.972460 # Ca LIG
496 32 3 0.000000 5.826000 34.825001 25.032459 # Cb LIG
497 32 3 0.000000 18.882000 12.210000 25.032459 # Cb LIG
498 32 5 0.000000 6.284000 33.597000 25.527460 # Cd LIG
499 32 5 0.000000 19.341000 10.982000 25.527460 # Cd LIG
500 32 6 0.000000 6.080000 33.349998 26.567459 # H LIG
501 32 6 0.000000 19.136999 10.735000 26.567459 # H LIG
502 19 9 0.000000 4.841000 35.334999 27.162460 # Ob LIG
503 20 9 0.000000 17.898001 12.720000 27.162460 # Ob LIG
504 32 10 0.000000 2.515000 37.233002 0.033500 # Oc LIG
505 32 10 0.000000 15.572000 14.618000 0.033500 # Oc LIG
506 35 9 0.000000 2.067000 38.446999 24.856461 # Ob LIG
507 36 9 0.000000 15.124000 15.832000 24.856461 # Ob LIG
508 9 2 0.000000 2.263000 38.046001 2.916500 # Ca LIG
509 10 2 0.000000 15.320000 15.431000 2.916500 # Ca LIG
510 32 3 0.000000 1.133000 37.848999 1.976500 # Cb LIG
511 32 3 0.000000 14.190000 15.234000 1.976500 # Cb LIG
512 32 4 0.000000 1.314000 37.462002 0.608500 # Cc LIG
513 32 4 0.000000 14.371000 14.847000 0.608500 # Cc LIG
514 32 5 0.000000 12.898000 15.451000 2.471500 # Cd LIG
515 32 5 0.000000 25.954000 38.066002 2.471500 # Cd LIG
516 37 6 0.000000 12.785000 15.751000 24.261459 # H LIG
517 38 6 0.000000 25.841999 38.366001 24.261459 # H LIG
518 5 2 0.000000 10.794000 14.722000 27.055460 # Ca LIG
519 6 2 0.000000 23.851000 37.337002 27.055460 # Ca LIG
520 32 3 0.000000 11.924000 14.919000 0.328500 # Cb LIG
521 32 3 0.000000 24.980000 37.534000 0.328500 # Cb LIG
522 32 4 0.000000 11.743000 15.306000 1.696500 # Cc LIG
523 32 4 0.000000 24.799000 37.921001 1.696500 # Cc LIG
524 32 5 0.000000 0.159000 37.317001 27.500460 # Cd LIG
525 32 5 0.000000 13.216000 14.702000 27.500460 # Cd LIG
526 32 6 0.000000 0.272000 37.016998 26.460461 # H LIG