LAMMPS (30 Jul 2016)

# ----------------- Init Section -----------------

units real
processors 1 1 1
newton off
atom_style full
atom_modify sort 0 10.0

# ----------------- Atom Definition Section -----------------

read_data "MgMOF74-Pressure50000.data"
  orthogonal box = (0.4447 0.31425 -0.401771) to (26.5587 45.5442 27.2652)
  1 by 1 by 1 MPI processor grid
  reading atoms ...
  1307 atoms
  0 = max # of 1-2 neighbors
  0 = max # of 1-3 neighbors
  0 = max # of 1-4 neighbors
  1 = max # of special neighbors

# ----------------- Settings Section -----------------

#include "MgMOF74-Pressure50000.in.settings"

# ----------------- Run Section -----------------

# define groups
group GUEST type 1
11 atoms in group GUEST
group MOF type 2 3 4 5 6 7 8 9 10
1296 atoms in group MOF

# define computes
compute comT all com
compute comG GUEST com
compute comM MOF com

# settings
timestep           0.5
thermo             200
thermo_style       custom step temp epair emol etotal c_comT[1] c_comT[2] c_comT[3] c_comG[1] c_comG[2] c_comG[3] c_comM[1] c_comM[2] c_comM[3]
restart            2000000 sim.restart

# reset box to start at 0
change_box         all x delta $(-xlo) $(-xlo) y delta $(-ylo) $(-ylo) z delta $(-zlo) $(-zlo) remap units box
change_box         all x delta -0.44469999999999998419 $(-xlo) y delta $(-ylo) $(-ylo) z delta $(-zlo) $(-zlo) remap units box
change_box         all x delta -0.44469999999999998419 -0.44469999999999998419 y delta $(-ylo) $(-ylo) z delta $(-zlo) $(-zlo) remap units box
change_box         all x delta -0.44469999999999998419 -0.44469999999999998419 y delta -0.3142499999999999738 $(-ylo) z delta $(-zlo) $(-zlo) remap units box
change_box         all x delta -0.44469999999999998419 -0.44469999999999998419 y delta -0.3142499999999999738 -0.3142499999999999738 z delta $(-zlo) $(-zlo) remap units box
change_box         all x delta -0.44469999999999998419 -0.44469999999999998419 y delta -0.3142499999999999738 -0.3142499999999999738 z delta 0.40177099999999998925 $(-zlo) remap units box
change_box         all x delta -0.44469999999999998419 -0.44469999999999998419 y delta -0.3142499999999999738 -0.3142499999999999738 z delta 0.40177099999999998925 0.40177099999999998925 remap units box
  orthogonal box = (0 0.31425 -0.401771) to (26.114 45.5442 27.2652)
  orthogonal box = (0 0 -0.401771) to (26.114 45.23 27.2652)
  orthogonal box = (0 0 0) to (26.114 45.23 27.667)
write_data         data_changebox.data

# get rid of overlapping atoms
run                0
WARNING: No fixes defined, atoms won't move (../verlet.cpp:55)
Memory usage per processor = 0.478851 Mbytes
Step Temp E_pair E_mol TotEng comT[1] comT[2] comT[3] comG[1] comG[2] comG[3] comM[1] comM[2] comM[3] 
       0            0            0            0            0    12.683318    22.424053    14.189073    19.734246    34.636249    9.6241346    12.612127     22.30075    14.235163 
Loop time of 0 on 1 procs for 0 steps with 1307 atoms

0.0% CPU use with 1 MPI tasks x no OpenMP threads

MPI task timing breakdown:
Section |  min time  |  avg time  |  max time  |%varavg| %total
---------------------------------------------------------------
Pair    | 0          | 0          | 0          |   0.0 |  0.00
Bond    | 0          | 0          | 0          |   0.0 |  0.00
Neigh   | 0          | 0          | 0          |   0.0 |  0.00
Comm    | 0          | 0          | 0          |   0.0 |  0.00
Output  | 0          | 0          | 0          |   0.0 |  0.00
Modify  | 0          | 0          | 0          |   0.0 |  0.00
Other   |            | 0          |            |       |  0.00

Nlocal:    1307 ave 1307 max 1307 min
Histogram: 1 0 0 0 0 0 0 0 0 0
Nghost:    0 ave 0 max 0 min
Histogram: 1 0 0 0 0 0 0 0 0 0
Neighs:    0 ave 0 max 0 min
Histogram: 1 0 0 0 0 0 0 0 0 0

Total # of neighbors = 0
Ave neighs/atom = 0
Ave special neighs/atom = 0
Neighbor list builds = 0
Dangerous builds = 0
velocity           GUEST create 313 1738991
fix                1 GUEST nve
pair_style         soft 5.0
pair_coeff         * * 0.0 5.0
kspace_style       none
variable           prefactor equal ramp(1.0,20.0)
fix                2 all adapt 1 pair soft a * * v_prefactor
run                200000
Neighbor list info ...
  1 neighbor list requests
  update every 1 steps, delay 10 steps, check yes
  max neighbors/atom: 2000, page size: 100000
  master list distance cutoff = 7
  ghost atom cutoff = 7
  binsize = 3.5 -> bins = 8 13 8
Memory usage per processor = 5.44173 Mbytes
Step Temp E_pair E_mol TotEng comT[1] comT[2] comT[3] comG[1] comG[2] comG[3] comM[1] comM[2] comM[3] 
       0    2.3966309    8995.3087            0    9004.6386    12.683318    22.424053    14.189073    19.734246    34.636249    9.6241346    12.612127     22.30075    14.235163 
     200    3.6978075    9161.1215            0    9175.5168    12.683326    22.424111    14.189045    19.735035    34.642019    9.6213762    12.612127     22.30075    14.235163 
     400    10.113594    9306.7807            0    9346.1523    12.683324     22.42456    14.188986    19.734831    34.686925    9.6154962    12.612127     22.30075    14.235163 
     600    21.600844    9431.9861            0    9516.0768    12.683202      22.4261    14.189105    19.722689    34.841011    9.6273966    12.612127     22.30075    14.235163 
     800    24.727699    9589.2147            0    9685.4781    12.683021    22.429361    14.189502    19.704575    35.167292     9.667074    12.612127     22.30075    14.235163 
    1000     26.23779    9752.5934            0    9854.7355     12.68293    22.433799    14.190053    19.695456    35.611222    9.7221957    12.612127     22.30075    14.235163 
    1200    18.324991    9952.8207            0    10024.159    12.682914    22.439019    14.190538    19.693782    36.133499    9.7707171    12.612127     22.30075    14.235163 
    1400    9.1725184    10158.558            0    10194.267    12.683072    22.443931    14.191307    19.709651     36.62486      9.84771    12.612127     22.30075    14.235163 
    1600    5.7090557    10342.509            0    10364.734    12.683295    22.447208    14.192519    19.731926    36.952725    9.9689398    12.612127     22.30075    14.235163 
    1800    6.9852012    10508.132            0    10535.325    12.683191    22.447551    14.193986    19.721582    36.987013    10.115728    12.612127     22.30075    14.235163 
    2000    16.963473    10639.491            0    10705.529    12.683117    22.444904    14.195643    19.714106    36.722201    10.281488    12.612127     22.30075    14.235163 
    2200     22.84566    10786.257            0    10875.194     12.68318    22.441578    14.197384    19.720443    36.389517    10.455636    12.612127     22.30075    14.235163 
    2400     27.20997    10938.629            0    11044.556     12.68326    22.438096    14.199361    19.728411    36.041161    10.653387    12.612127     22.30075    14.235163 
    2600    21.818481    11128.961            0    11213.899    12.683484    22.434494    14.201628    19.750879    35.680726    10.880174    12.612127     22.30075    14.235163 
    2800    13.644312    11330.606            0    11383.722    12.684035    22.432438    14.203877    19.805996    35.475041    11.105196    12.612127     22.30075    14.235163 
    3000    7.6321668    11524.249            0    11553.961    12.684958    22.430531    14.205688    19.898279    35.284349    11.286406    12.612127     22.30075    14.235163 
    3200     10.01367     11685.37            0    11724.353     12.68609    22.427962    14.207025    20.011576    35.027347    11.420126    12.612127     22.30075    14.235163 
    3400    18.069147    11824.053            0    11894.395    12.687209      22.4234    14.208089    20.123522    34.570888    11.526564    12.612127     22.30075    14.235163 
    3600    27.362243    11957.417            0    12063.937     12.68805    22.416548    14.208696    20.207696    33.885385     11.58727    12.612127     22.30075    14.235163 
    3800    26.917874    12128.392            0    12233.181    12.688463    22.409578    14.209015    20.248939    33.188083    11.619224    12.612127     22.30075    14.235163 
    4000     20.82711    12321.556            0    12402.634    12.688606    22.403691    14.209313    20.263315    32.599143    11.649052    12.612127     22.30075    14.235163 
    4200    11.235012    12528.792            0    12572.529    12.688444    22.399107    14.209788    20.247047    32.140579    11.696594    12.612127     22.30075    14.235163 
    4400    8.8451521    12708.374            0    12742.807    12.687706    22.395667    14.210294    20.173201    31.796404    11.747184    12.612127     22.30075    14.235163 
    4600    19.400831    12837.342            0    12912.868    12.686613    22.393001    14.210894     20.06384    31.529715    11.807231    12.612127     22.30075    14.235163 
    4800    29.956213    12965.663            0    13082.281    12.685525     22.39225     14.21151     19.95508    31.454614    11.868789    12.612127     22.30075    14.235163 
    5000    30.122459    13134.181            0    13251.445    12.684971    22.392562    14.211966    19.899664     31.48584    11.914397    12.612127     22.30075    14.235163 
    5200    21.128359    13338.579            0     13420.83     12.68527    22.394474    14.212255    19.929497    31.677111    11.943365    12.612127     22.30075    14.235163 
    5400    9.2789665    13554.636            0    13590.759    12.686085    22.397615    14.212824    20.011062     31.99131    12.000248    12.612127     22.30075    14.235163 
    5600    7.5576491    13731.649            0    13761.071    12.686691     22.39982    14.214012    20.071674    32.211963    12.119112    12.612127     22.30075    14.235163 
    5800    19.622133    13854.743            0    13931.131    12.687086    22.400347    14.215571    20.111238    32.264605    12.275112    12.612127     22.30075    14.235163 
    6000    31.393742    13978.293            0    14100.507    12.687376    22.399993    14.216893    20.140221     32.22925    12.407316    12.612127     22.30075    14.235163 
    6200    29.583078    14154.522            0    14269.687    12.687684    22.399255    14.218062    20.171031    32.155393    12.524322    12.612127     22.30075    14.235163 
    6400     19.72674    14362.326            0    14439.121    12.688277    22.397839    14.219558    20.230335    32.013732    12.674006    12.612127     22.30075    14.235163 
    6600    7.3890847    14580.401            0    14609.167    12.688462    22.395488    14.221336    20.248897    31.778534    12.851799    12.612127     22.30075    14.235163 
    6800    13.033782    14728.638            0    14779.378    12.687388    22.394404    14.223467    20.141379    31.670103    13.064991    12.612127     22.30075    14.235163 
    7000    26.444564    14846.139            0    14949.086    12.685683    22.397381    14.225982    19.970798    31.967933    13.316655    12.612127     22.30075    14.235163 
    7200    32.169849    14993.075            0    15118.311    12.683922    22.404262    14.228495    19.794634    32.656327    13.568016    12.612127     22.30075    14.235163 
    7400     26.84422    15183.054            0    15287.556    12.681961    22.412057    14.230953    19.598529    33.436166    13.813963    12.612127     22.30075    14.235163 
    7600    13.645434    15404.081            0    15457.202      12.6798     22.42055     14.23361    19.382258    34.285814    14.079775    12.612127     22.30075    14.235163 
    7800    9.1907681    15591.566            0    15627.345    12.679065    22.426458    14.236091    19.308723    34.876866    14.327978    12.612127     22.30075    14.235163 
    8000    19.482515    15721.439            0    15797.283    12.679572    22.427498    14.238201    19.359456    34.980855    14.539088    12.612127     22.30075    14.235163 
    8200    26.366637    15864.198            0    15966.842    12.680695    22.423919     14.23984     19.47182    34.622791     14.70299    12.612127     22.30075    14.235163 
    8400    27.958743    16027.378            0     16136.22     12.68202    22.417791    14.241208    19.604418    34.009797     14.83991    12.612127     22.30075    14.235163 
    8600    18.649412     16233.17            0    16305.771    12.683311    22.409123    14.242304    19.733535    33.142561    14.949545    12.612127     22.30075    14.235163 
    8800     16.64094    16410.822            0    16475.604    12.683564    22.400805    14.243065    19.758853    32.310468    15.025702    12.612127     22.30075    14.235163 
    9000    21.839763    16560.286            0    16645.306    12.683041    22.396764     14.24338    19.706543    31.906224    15.057126    12.612127     22.30075    14.235163 
    9200    27.690905     16707.01            0    16814.809    12.681898    22.399032    14.243115    19.592201    32.133061    15.030634    12.612127     22.30075    14.235163 
    9400    26.939598    16879.314            0    16984.188    12.680233    22.404379     14.24281    19.425617    32.668054    15.000145    12.612127     22.30075    14.235163 
    9600    19.697896    17077.054            0    17153.737    12.678979     22.41162    14.242896     19.30016    33.392408    15.008782    12.612127     22.30075    14.235163 
    9800    17.907808    17253.824            0    17323.538    12.679037    22.418605     14.24372    19.305923    34.091166     15.09119    12.612127     22.30075    14.235163 
   10000    25.090104     17395.46            0    17493.134    12.680644    22.422211    14.245167    19.466704    34.452001    15.235959    12.612127     22.30075    14.235163 
   10200    27.507067    17555.493            0    17662.576    12.682899    22.420327    14.246944     19.69231    34.263492    15.413756    12.612127     22.30075    14.235163 
   10400    25.494844    17732.735            0    17831.985     12.68523    22.415502    14.248455    19.925567    33.780725    15.564902    12.612127     22.30075    14.235163 
   10600    19.097705     17927.22            0    18001.566    12.687214    22.408839    14.249488    20.124004    33.114215     15.66824    12.612127     22.30075    14.235163 
   10800    21.061184     18089.32            0     18171.31    12.687106    22.402379    14.250719    20.113171    32.467921    15.791339    12.612127     22.30075    14.235163 
   11000    28.460373     18229.99            0    18340.784    12.684494    22.398922    14.252227    19.851937    32.122034    15.942273    12.612127     22.30075    14.235163 
   11200    28.210417    18400.327            0    18510.149    12.680955    22.399974      14.2536    19.497884    32.227332    16.079552    12.612127     22.30075    14.235163 
   11400    21.184903    18597.167            0    18679.638      12.6769    22.403867    14.255113    19.092177    32.616812    16.231007    12.612127     22.30075    14.235163 
   11600    20.507865    18769.473            0    18849.309    12.673236     22.40989    14.256709    18.725652    33.219339    16.390653    12.612127     22.30075    14.235163 
   11800    23.856069    18926.057            0    19018.927    12.672307    22.414945    14.257945    18.632716    33.725063    16.514293    12.612127     22.30075    14.235163 
   12000    27.848731    19079.964            0    19188.377    12.674137     22.41767    14.258922     18.81576    33.997621    16.611985    12.612127     22.30075    14.235163 
   12200    25.780674    19257.436            0    19357.798    12.677181    22.417541    14.259892    19.120317    33.984757    16.709058    12.612127     22.30075    14.235163 
   12400    20.626411    19447.086            0    19527.384     12.68219    22.414918    14.261406    19.621401    33.722398     16.86054    12.612127     22.30075    14.235163 
   12600    22.181225    19610.647            0    19696.997    12.687725     22.41076    14.263276    20.175182    33.306393    17.047613    12.612127     22.30075    14.235163 
   12800    25.905593    19765.686            0    19866.535    12.690553    22.408951    14.265204    20.458036    33.125378    17.240471    12.612127     22.30075    14.235163 
   13000    27.548179    19928.729            0    20035.972    12.690547    22.408887    14.267742    20.457499    33.118982    17.494386    12.612127     22.30075    14.235163 
   13200    23.496664    20113.947            0    20205.418    12.688968    22.411208    14.271378    20.299531     33.35119    17.858187    12.612127     22.30075    14.235163 
   13400    22.197806    20288.617            0    20375.032    12.684977    22.414663    14.276123    19.900266    33.696879    18.332856    12.612127     22.30075    14.235163 
   13600    25.253626    20446.254            0    20544.564    12.681024    22.416748    14.281424    19.504767    33.905455    18.863196    12.612127     22.30075    14.235163 
   13800    30.269146    20596.151            0    20713.987    12.680167    22.415347    14.286654    19.418984    33.765254    19.386376    12.612127     22.30075    14.235163 
   14000    28.236684    20773.413            0    20883.337    12.680968    22.411125    14.292073    19.499131    33.342937    19.928549    12.612127     22.30075    14.235163 
   14200    21.853938    20967.767            0    21052.843    12.682235    22.405725    14.297254     19.62589    32.802622    20.446807    12.612127     22.30075    14.235163 
   14400    23.297917    21131.707            0    21222.404    12.684628    22.401065      14.3026    19.865326    32.336446    20.981696    12.612127     22.30075    14.235163 
   14600     26.65857    21288.141            0    21391.921    12.684279    22.400167    14.308097    19.830346    32.246624     21.53155    12.612127     22.30075    14.235163 
   14800    31.403863    21438.996            0    21561.249    12.679398     22.40267    14.313606    19.342123    32.497069    22.082687    12.612127     22.30075    14.235163 
   15000    23.864077    21637.767            0    21730.669    12.674337    22.408484     14.31857    18.835755    33.078715    22.579305    12.612127     22.30075    14.235163 
   15200    22.782964    21811.541            0    21900.233    12.670853    22.414491    14.323286    18.487175    33.679639    23.051148    12.612127     22.30075    14.235163 
   15400    23.626109     21977.85            0    22069.825    12.669482    22.418079    14.327495     18.35009    34.038557    23.472174    12.612127     22.30075    14.235163 
   15600     32.78384      22111.6            0    22239.226    12.672868    22.418295     14.33135    18.688822    34.060156    23.857895    12.612127     22.30075    14.235163 
   15800    28.976248    22295.734            0    22408.537    12.679569     22.41594    14.334733    19.359162    33.824643    24.196283    12.612127     22.30075    14.235163 
   16000    21.840825    22493.011            0    22578.036    12.685778    22.412309    14.337576    19.980378     33.46136    24.480752    12.612127     22.30075    14.235163 
   16200    20.110581    22669.381            0    22747.671    12.689202    22.410149      14.3394    20.322885    33.245253     24.66321    12.612127     22.30075    14.235163 
   16400    28.753403    22805.281            0    22917.216    12.688598    22.410992     14.34015    20.262498    33.329579    24.738183    12.612127     22.30075    14.235163 
   16600    32.177811     22961.21            0    23086.476    12.684965    22.412865    14.340543    19.898987     33.51694    24.777552    12.612127     22.30075    14.235163 
   16800    24.063495    23162.217            0    23255.895    12.680798    22.416638     14.34041    19.482164    33.894437    24.764194    12.612127     22.30075    14.235163 
   17000    19.043298    23351.332            0    23425.466    12.677777    22.420377    14.340005    19.179878    34.268466    24.723702    12.612127     22.30075    14.235163 
   17200    26.435202    23492.167            0    23595.078    12.678842    22.419561     14.33971    19.286452    34.186804    24.694189    12.612127     22.30075    14.235163 
   17400     35.05088    23627.886            0    23764.337    12.683241    22.415606    14.339449    19.726562    33.791146    24.668103    12.612127     22.30075    14.235163 
   17600    25.604189    23834.006            0    23933.681    12.687725    22.409935    14.338781    20.175132    33.223872    24.601313    12.612127     22.30075    14.235163 
   17800    23.725693    24010.821            0    24103.183    12.691705    22.404402    14.337985    20.573302    32.670267    24.521607    12.612127     22.30075    14.235163 
   18000    22.571967      24184.9            0    24272.772    12.692325    22.402949    14.336725    20.635313    32.524968    24.395548    12.612127     22.30075    14.235163 
   18200    33.529305    24311.607            0    24442.135    12.689393    22.405356    14.334944    20.341995    32.765753    24.217367    12.612127     22.30075    14.235163 
   18400     25.57478     24511.94            0    24611.501    12.686861    22.409879    14.333377    20.088654    33.218213    24.060644    12.612127     22.30075    14.235163 
   18600    26.994194    24675.898            0    24780.985    12.684829    22.414685     14.33214     19.88539    33.699064    23.936913    12.612127     22.30075    14.235163 
   18800    22.146556    24864.271            0    24950.486    12.684021    22.416702    14.331423    19.804604    33.900809    23.865207    12.612127     22.30075    14.235163 
   19000    36.920796    24976.148            0    25119.878    12.685169    22.414577     14.33001    19.919402    33.688228    23.723794    12.612127     22.30075    14.235163 
   19200    28.662748    25177.566            0    25289.149    12.686638     22.40969    14.328094    20.066369    33.199299    23.532088    12.612127     22.30075    14.235163 
   19400     23.98994    25365.241            0    25458.633    12.687001    22.403218    14.326606    20.102714    32.551892     23.38323    12.612127     22.30075    14.235163 
   19600    24.666861    25532.116            0    25628.142    12.685443    22.398854    14.325495    19.946884    32.115241    23.272117    12.612127     22.30075    14.235163 
   19800    32.220827    25672.132            0    25797.566    12.683235    22.399924    14.323659    19.725953    32.222288    23.088441    12.612127     22.30075    14.235163 
   20000    28.329502    25856.622            0    25966.907    12.680454    22.404127    14.321653    19.447762    32.642841    22.887741    12.612127     22.30075    14.235163 
   20200    26.597764    26032.811            0    26136.355    12.678167    22.409959    14.319846    19.218887    33.226206    22.707021    12.612127     22.30075    14.235163 
   20400    26.227897    26203.718            0    26305.822    12.677772    22.414335    14.318946    19.179444    33.664029    22.616975    12.612127     22.30075    14.235163 
   20600     35.85573    26335.587            0    26475.171    12.678257    22.415072     14.31859     19.22789    33.737716    22.581285    12.612127     22.30075    14.235163 
   20800     25.53051    26545.155            0    26644.544    12.679283    22.412754     14.31851    19.330539    33.505894    22.573281    12.612127     22.30075    14.235163 
   21000    29.435855    26699.394            0    26813.986    12.680992    22.408475     14.31813    19.501594    33.077786    22.535304    12.612127     22.30075    14.235163 
   21200    27.390871    26876.763            0    26983.394    12.682088    22.406504    14.317404    19.611199    32.880608    22.462629    12.612127     22.30075    14.235163 
   21400    35.078411     27016.18            0    27152.738    12.682919    22.408689    14.316854    19.694373    33.099198    22.407686    12.612127     22.30075    14.235163 
   21600    23.645116    27230.053            0    27322.102    12.682824    22.413727    14.316138     19.68485    33.603163     22.33606    12.612127     22.30075    14.235163 
   21800    29.213378    27377.873            0    27491.599    12.681959      22.4199    14.315733    19.598337    34.220766    22.295533    12.612127     22.30075    14.235163 
   22000    27.181977    27555.187            0    27661.005    12.682389    22.422571    14.314902    19.641354     34.48801    22.212392    12.612127     22.30075    14.235163 
   22200    35.597039    27691.786            0    27830.363    12.683307    22.419686    14.313786    19.733108    34.199344    22.100699    12.612127     22.30075    14.235163 
   22400    26.079124    27898.177            0    27999.702     12.68442    22.412303    14.312696    19.844505    33.460718    21.991709    12.612127     22.30075    14.235163 
   22600    28.430479    28058.482            0     28169.16     12.68668    22.401603    14.312017    20.070544    32.390243    21.923793    12.612127     22.30075    14.235163 
   22800    27.479497    28231.614            0     28338.59    12.687262    22.395561    14.311337    20.128838    31.785844    21.855705    12.612127     22.30075    14.235163 
   23000    35.618569    28369.239            0      28507.9    12.687007     22.39515    14.310682     20.10328    31.744767    21.790157    12.612127     22.30075    14.235163 
   23200      29.1091    28563.887            0    28677.207    12.686508    22.398868      14.3098    20.053368    32.116675    21.701959    12.612127     22.30075    14.235163 
   23400     25.27795    28748.233            0    28846.638    12.684494    22.406396    14.308616    19.851947    32.869812    21.583513    12.612127     22.30075    14.235163 
   23600    29.382135    28901.718            0    29016.101    12.684701     22.41076    14.307346    19.872577    33.306392    21.456448    12.612127     22.30075    14.235163 
   23800     37.72895    29038.475            0    29185.351    12.684533    22.411413     14.30571    19.855844    33.371703    21.292835    12.612127     22.30075    14.235163 
   24000    27.366997    29248.112            0     29354.65    12.684863    22.410144    14.303801    19.888795    33.244795    21.101793    12.612127     22.30075    14.235163 
   24200    22.058905    29438.292            0    29524.166    12.686472    22.406656    14.302063    20.049796    32.895755    20.927931    12.612127     22.30075    14.235163 
   24400    34.754494    29558.284            0    29693.581    12.685451    22.405769    14.301611    19.947597    32.807071    20.882699    12.612127     22.30075    14.235163 
   24600    33.451964    29732.589            0    29862.815     12.68401    22.408011    14.301311    19.803472    33.031341    20.852709    12.612127     22.30075    14.235163 
   24800    25.138084    29934.331            0    30032.192    12.680676    22.412324    14.300841    19.469953    33.462804     20.80572    12.612127     22.30075    14.235163 
   25000    28.424828    30091.015            0    30201.671    12.677098    22.415935    14.300058    19.112023    33.824091    20.727397    12.612127     22.30075    14.235163 
   25200    33.727249    30239.684            0    30370.982    12.676557    22.417166    14.298344    19.057836    33.947257    20.555899    12.612127     22.30075    14.235163 
   25400    32.798254    30412.608            0    30540.289    12.678583    22.418515    14.295494    19.260561    34.082174    20.270776    12.612127     22.30075    14.235163 
   25600     27.26785    30603.477            0    30709.629     12.68406    22.419391    14.292684    19.808439    34.169849    19.989613    12.612127     22.30075    14.235163 
   25800    33.048757    30750.409            0    30879.065    12.689374    22.421814    14.290573    20.340092    34.412279      19.7784    12.612127     22.30075    14.235163 
   26000     29.36909    30934.013            0    31048.345    12.691178    22.424443    14.289169    20.520595    34.675232    19.638037    12.612127     22.30075    14.235163 
   26200    36.098063    31077.157            0    31217.684    12.689363    22.421586    14.288648    20.339001     34.38945     19.58585    12.612127     22.30075    14.235163 
   26400    26.836448    31282.535            0    31387.008     12.68641    22.415178    14.288817    20.043527    33.748389    19.602804    12.612127     22.30075    14.235163 
   26600    34.185762    31423.275            0    31556.358    12.683361    22.405619    14.289511    19.738561    32.792046    19.672197    12.612127     22.30075    14.235163 
   26800     30.04355    31608.708            0    31725.666    12.681485    22.398044    14.290204    19.550906    32.034199    19.741518    12.612127     22.30075    14.235163 
   27000    36.840813    31751.544            0    31894.963    12.681351    22.398573    14.291489    19.537477    32.087209    19.870055    12.612127     22.30075    14.235163 
   27200    26.722496    31960.284            0    32064.313    12.681574    22.404473    14.293159    19.559781    32.677392    20.037176    12.612127     22.30075    14.235163 
   27400    33.739523     32102.29            0    32233.636    12.681892    22.412713    14.294426    19.591619    33.501729    20.163952    12.612127     22.30075    14.235163 
   27600    35.028091    32266.579            0    32402.941    12.681358    22.416526    14.295844    19.538175    33.883182    20.305743    12.612127     22.30075    14.235163 
   27800    28.193112    32462.475            0    32572.229    12.680906    22.415536    14.298021    19.492968    33.784174    20.523517    12.612127     22.30075    14.235163 
   28000    28.559634    32630.501            0    32741.682    12.681474    22.412085    14.300392    19.549731    33.438889    20.760796    12.612127     22.30075    14.235163 
   28200    35.778922    32771.692            0    32910.977    12.681168    22.407905    14.301412      19.5192    33.020759    20.862768    12.612127     22.30075    14.235163 
   28400    37.959852    32932.436            0    33080.211    12.682389     22.40587    14.302512    19.641317     32.81713    20.972835    12.612127     22.30075    14.235163 
   28600    22.354182    33162.515            0    33249.539    12.684743    22.405909    14.304344    19.876783    32.821072    21.156177    12.612127     22.30075    14.235163 
   28800    34.567257    33284.413            0    33418.981    12.689021    22.407889    14.307356    20.304752    33.019188    21.457416    12.612127     22.30075    14.235163 
   29000    36.198159    33447.302            0     33588.22    12.692509    22.410924    14.310892    20.653765    33.322799    21.811205    12.612127     22.30075    14.235163 
   29200    29.457704    33642.822            0    33757.499    12.690413    22.413892    14.314902    20.444041    33.619689    22.212332    12.612127     22.30075    14.235163 
   29400    28.484988    33816.053            0    33926.943    12.683866    22.415968    14.318812    19.789069    33.827411    22.603543    12.612127     22.30075    14.235163 
   29600    33.979836    33963.962            0    34096.243    12.676337    22.413833     14.32274     19.03582    33.613785    22.996507    12.612127     22.30075    14.235163 
   29800    37.744473    34118.554            0    34265.491    12.673836    22.408745    14.327634    18.785674    33.104776    23.486107    12.612127     22.30075    14.235163 
   30000    27.822928    34326.489            0    34434.802    12.675603     22.40408    14.332571    18.962446    32.638111    23.980035    12.612127     22.30075    14.235163 
   30200    32.073581    34479.333            0    34604.193    12.678784    22.402645    14.336879    19.280655     32.49458    24.411005    12.612127     22.30075    14.235163 
   30400    31.504933    34650.841            0    34773.488    12.682315    22.407515    14.339699     19.63388    32.981721    24.693157    12.612127     22.30075    14.235163 
   30600    32.886666      34814.8            0    34942.826    12.685166    22.414106    14.340753     19.91916    33.641095    24.798569    12.612127     22.30075    14.235163 
   30800    27.770137    35004.079            0    35112.186    12.687399    22.417039    14.340934    20.142548    33.934573      24.8167    12.612127     22.30075    14.235163 
   31000    28.384544    35171.069            0    35281.569    12.689399    22.415591    14.340764    20.342635    33.789701    24.799621    12.612127     22.30075    14.235163 
   31200    37.096548    35306.485            0      35450.9    12.685423    22.410228    14.340919    19.944825    33.253186    24.815137    12.612127     22.30075    14.235163 
   31400    33.139983    35491.117            0    35620.129    12.679092    22.406392    14.341356    19.311517    32.869371    24.858862    12.612127     22.30075    14.235163 
   31600    25.159248    35691.611            0    35789.554     12.67416      22.4041    14.342543    18.818029    32.640059    24.977668    12.612127     22.30075    14.235163 
   31800    34.223498    35825.677            0    35958.907     12.67622    22.405679    14.344151    19.024197    32.798085      25.1385    12.612127     22.30075    14.235163 
   32000    36.964931     35984.23            0    36128.132    12.684655    22.408934    14.345648    19.867982    33.123741    25.288306    12.612127     22.30075    14.235163 
   32200    23.876345    36204.543            0    36297.493    12.693508     22.41464    14.347356    20.753723    33.694498    25.459154    12.612127     22.30075    14.235163 
   32400     32.30638    36341.188            0    36466.955    12.695751    22.420808    14.349667    20.978119     34.31156    25.690377    12.612127     22.30075    14.235163 
   32600    40.474876    36478.593            0    36636.159    12.691162    22.422036    14.352612    20.518958    34.434408    25.984979    12.612127     22.30075    14.235163 
   32800     18.16725    36734.771            0    36805.495    12.683763    22.420715    14.355251    19.778806    34.302306    26.248993    12.612127     22.30075    14.235163 
   33000    31.816852    36851.138            0    36974.999    12.678702    22.415427    14.357637    19.272449    33.773286    26.487705    12.612127     22.30075    14.235163 
   33200    40.691367    36985.814            0    37144.223     12.67879    22.409456     14.35997    19.281286    33.175944     26.72103    12.612127     22.30075    14.235163 
   33400    27.332533    37207.089            0    37313.493    12.681368    22.404839    14.362292    19.539145    32.713984     26.95341    12.612127     22.30075    14.235163 
   33600    30.275564    37365.066            0    37482.927    12.686009    22.405473    14.364147    20.003451    32.777502    27.138978    12.612127     22.30075    14.235163 
   33800    37.983721    37504.324            0    37652.193    12.686746    22.410447    14.364795    20.077147    33.275067    27.203719    12.612127     22.30075    14.235163 
   34000    33.524626    37690.905            0    37821.415    12.685137    22.417445    14.364627    19.916219    33.975158    27.186953    12.612127     22.30075    14.235163 
   34200    24.428035     37895.73            0    37990.827    12.680483    22.421916     14.36453    19.450596    34.422436    27.177253    12.612127     22.30075    14.235163 
   34400      39.3767     38006.86            0    38160.151    12.677251    22.418644     14.36506    19.127322    34.095079    27.230271    12.612127     22.30075    14.235163 
   34600    34.973284    38193.248            0    38329.397    12.675858    22.412087    14.364834    18.987893    33.439116     27.20763    12.612127     22.30075    14.235163 
   34800    26.084594    38397.187            0    38498.733    12.677641    22.406336    14.363852    19.166307    32.863765    27.109383    12.612127     22.30075    14.235163 
   35000    36.047285    38527.786            0    38668.116    12.681051    22.406245    14.362406    19.507421     32.85471     26.96472    12.612127     22.30075    14.235163 
   35200    35.809639    38697.937            0    38837.342    12.683256    22.410724    14.361614    19.728063    33.302733    26.885538    12.612127     22.30075    14.235163 
   35400    36.820406    38863.245            0    39006.584    12.684034    22.414986    14.361247    19.805899    33.729194    26.848816    12.612127     22.30075    14.235163 
   35600    25.706487    39075.926            0        39176     12.68227    22.414798    14.360992    19.629376     33.71034    26.823319    12.612127     22.30075    14.235163 
   35800    39.497311     39191.49            0    39345.251    12.680631    22.408207    14.360552     19.46546    33.050985    26.779312    12.612127     22.30075    14.235163 
   36000    35.556037     39376.06            0    39514.478    12.678015    22.400821    14.359792    19.203711      32.3121    26.703218    12.612127     22.30075    14.235163 
   36200    25.450018    39584.742            0    39683.818    12.678109     22.39766    14.358894    19.213164    31.995832    26.613433    12.612127     22.30075    14.235163 
   36400    38.659652    39702.649            0    39853.148    12.683304    22.404161    14.358879    19.732895    32.646237    26.611956    12.612127     22.30075    14.235163 
   36600    36.910409    39878.687            0    40022.377    12.688194    22.413999    14.358649    20.222071    33.630388    26.588914    12.612127     22.30075    14.235163 
   36800    27.817901    40083.388            0    40191.682    12.691311    22.420207     14.35908    20.533918    34.251424     26.63206    12.612127     22.30075    14.235163 
   37000    35.527932    40222.719            0    40361.027     12.68919    22.418624    14.360856    20.321703    34.093094    26.809748    12.612127     22.30075    14.235163 
   37200     41.19306    40369.862            0    40530.224      12.6841    22.410487    14.362997    19.812482    33.279088     27.02394    12.612127     22.30075    14.235163 
   37400    25.165989    40601.585            0    40699.554    12.680439    22.402083    14.365645    19.446189    32.438274    27.288794    12.612127     22.30075    14.235163 
   37600    31.899696     40744.75            0    40868.933    12.681223    22.401042     14.36897    19.524682    32.334182    27.621492    12.612127     22.30075    14.235163 
   37800    40.260898    40881.429            0    41038.162    12.685854     22.40638    14.372881    19.987974    32.868157    28.012671    12.612127     22.30075    14.235163 
   38000    29.670648    41091.928            0    41207.434    12.691815    22.415643    14.376405    20.584312    33.794905    28.365277    12.612127     22.30075    14.235163 
   38200    30.752506    41257.053            0    41376.771    12.695763    22.424401    14.379335    20.979229    34.671046    28.658339    12.612127     22.30075    14.235163 
   38400    36.263908    41404.914            0    41546.088    12.694854    22.425619    14.381498    20.888348    34.792873    28.874772    12.612127     22.30075    14.235163 
   38600    32.701862    41588.073            0    41715.379    12.689352    22.419919     14.38234    20.337893    34.222613    28.958973    12.612127     22.30075    14.235163 
   38800      38.5241     41734.66            0    41884.632    12.678959    22.411205    14.382224    19.298152      33.3509    28.947386    12.612127     22.30075    14.235163 
   39000    28.924443    41941.333            0    42053.934    12.667286    22.404249    14.382475     18.13041    32.655051    28.972534    12.612127     22.30075    14.235163 
   39200    34.019461    42090.845            0    42223.281    12.663983    22.403686    14.383152    17.799886    32.598656    29.040226    12.612127     22.30075    14.235163 
   39400    40.734509    42233.946            0    42392.523    12.671313    22.408803    14.384975    18.533265    33.110608    29.222588    12.612127     22.30075    14.235163 
   39600    27.800927     42453.53            0    42561.757    12.683649      22.4139    14.387137    19.767334     33.62047    29.438925    12.612127     22.30075    14.235163 
   39800    32.726252     42603.74            0    42731.141    12.690728    22.414568    14.390064    20.475534    33.687296    29.731753    12.612127     22.30075    14.235163 
   40000    43.172183    42732.281            0    42900.348    12.687282    22.411508     14.39307    20.130856    33.381193    30.032445    12.612127     22.30075    14.235163 
   40200     29.13701     42956.13            0    43069.559    12.680448    22.407456    14.395608    19.447166    32.975867    30.286363    12.612127     22.30075    14.235163 
   40400    31.329569    43117.046            0     43239.01     12.67422    22.409307    14.395937    18.824104    33.160979    30.319279    12.612127     22.30075    14.235163 
   40600    41.508614    43246.637            0    43408.227    12.674777    22.412552    14.394253    18.879788    33.485693    30.150845    12.612127     22.30075    14.235163 
   40800    32.380541    43451.376            0    43577.431    12.677369    22.414197    14.392145     19.13909    33.650185    29.939931    12.612127     22.30075    14.235163 
   41000    27.719446    43638.971            0    43746.881    12.683655    22.413258    14.389857    19.767915    33.556297    29.711064    12.612127     22.30075    14.235163 
   41200    43.679022    43746.044            0    43916.084    12.689172    22.410257    14.387088    20.319938    33.256025    29.434029    12.612127     22.30075    14.235163 
   41400    29.365371    43970.991            0    44085.308    12.692252    22.408068    14.384573    20.628069    33.037046    29.182441    12.612127     22.30075    14.235163 
   41600    26.941077    44149.835            0    44254.715    12.688987    22.409285    14.382756    20.301379    33.158854     29.00062    12.612127     22.30075    14.235163 
   41800    38.897974    44272.586            0    44424.014    12.685739    22.413479    14.382684    19.976419    33.578419    28.993412    12.612127     22.30075    14.235163 
   42000    34.301333    44459.682            0    44593.215    12.681981    22.418915    14.383238    19.600455    34.122184    29.048866    12.612127     22.30075    14.235163 
   42200    28.900622    44650.066            0    44762.575    12.684176    22.419693    14.382844    19.820112    34.200095    29.009473    12.612127     22.30075    14.235163 
   42400    37.000427    44787.841            0    44931.882    12.687936    22.413876     14.38222    20.196217    33.618074     28.94702    12.612127     22.30075    14.235163 
   42600    33.273258    44971.572            0    45101.103    12.690206    22.403624    14.381429    20.423386    32.592512    28.867917    12.612127     22.30075    14.235163 
   42800    30.445128    45151.931            0    45270.452    12.687657    22.399306    14.380433    20.168349    32.160447    28.768212    12.612127     22.30075    14.235163 
   43000    34.340847    45306.063            0     45439.75    12.682565    22.402841    14.378369    19.658905    32.514151     28.56178    12.612127     22.30075    14.235163 
   43200    36.529197    45466.796            0    45609.002    12.676975    22.413299    14.376121    19.099716    33.560386    28.336869    12.612127     22.30075    14.235163 
   43400    29.976556    45661.606            0    45778.303    12.675519    22.422049    14.374154    18.954007    34.435774    28.140031    12.612127     22.30075    14.235163 
   43600    36.246407    45806.471            0    45947.576    12.676169    22.421281     14.37153       19.019    34.358879    27.877569    12.612127     22.30075    14.235163 
   43800    35.761813    45977.624            0    46116.842    12.678129    22.412446    14.369556    19.215178    33.475036    27.680089    12.612127     22.30075    14.235163 
   44000    39.479116    46132.405            0    46286.095     12.67827    22.403155    14.368946    19.229272    32.545529    27.619032    12.612127     22.30075    14.235163 
   44200    28.539303    46344.306            0    46455.407    12.679005    22.400316    14.368734    19.302758     32.26156    27.597859    12.612127     22.30075    14.235163 
   44400    40.331834    46467.692            0    46624.701    12.680171    22.408986    14.369007    19.419392    33.128881    27.625096    12.612127     22.30075    14.235163 
   44600    37.848701    46646.574            0    46793.917     12.68183    22.418636    14.369515    19.585363    34.094331    27.676006    12.612127     22.30075    14.235163 
   44800    27.674161    46855.483            0    46963.217    12.680962    22.422725    14.370092    19.498533    34.503331    27.733701    12.612127     22.30075    14.235163 
   45000    39.096072    46980.355            0    47132.553    12.677872    22.414788    14.370578    19.189421    33.709391    27.782309    12.612127     22.30075    14.235163 
   45200    39.405422    47148.344            0    47301.747    12.674988     22.40118    14.370592    18.900848    32.347948    27.783686    12.612127     22.30075    14.235163 
   45400    28.265639     47361.01            0    47471.047    12.673165    22.392859    14.370315    18.718486    31.515531    27.756022    12.612127     22.30075    14.235163 
   45600    39.879557    47485.098            0    47640.346    12.676096     22.39638    14.369697    19.011747    31.867766    27.694158    12.612127     22.30075    14.235163 
   45800    40.722678    47651.014            0    47809.545    12.680869    22.408883    14.369518    19.489263    33.118612    27.676267    12.612127     22.30075    14.235163 
   46000    29.156035    47865.305            0    47978.807    12.685021    22.423336    14.370202     19.90458    34.564551    27.744734    12.612127     22.30075    14.235163 
   46200    38.735933    47997.332            0    48148.129     12.68415    22.427764    14.371846    19.817524    35.007518    27.909123    12.612127     22.30075    14.235163 
   46400    38.477565    48167.552            0    48317.343    12.681415    22.423546    14.373749    19.543914    34.585483    28.099585    12.612127     22.30075    14.235163 
   46600    29.500395    48371.755            0    48486.598    12.679153    22.413171    14.375895    19.317611    33.547531    28.314232    12.612127     22.30075    14.235163 
   46800    35.623748    48517.278            0    48655.959    12.682242    22.407482    14.376745    19.626647    32.978424    28.399253    12.612127     22.30075    14.235163 
   47000     43.71342    48654.973            0    48825.146    12.687191    22.408593    14.377537    20.121757    33.089583    28.478469    12.612127     22.30075    14.235163 
   47200    36.602774    48851.837            0    48994.329    12.692014    22.412809    14.378089    20.604236    33.511368    28.533679    12.612127     22.30075    14.235163 
   47400    32.673053    49036.488            0    49163.683    12.691187    22.414655    14.379562    20.521445    33.696011    28.681125    12.612127     22.30075    14.235163 
   47600    41.754158     49170.35            0    49332.896    12.682896     22.41055    14.381298    19.692062    33.285327    28.854773    12.612127     22.30075    14.235163 
   47800    41.099826    49342.067            0    49502.066    12.673528    22.406649    14.382551    18.754792    32.895151    28.980163    12.612127     22.30075    14.235163 
   48000    31.077683    49550.366            0     49671.35    12.667566    22.403211    14.384251    18.158351    32.551135    29.150197    12.612127     22.30075    14.235163 
   48200     42.90313    49673.569            0    49840.588    12.670941    22.405807    14.385278    18.496065    32.810904    29.252883    12.612127     22.30075    14.235163 
   48400    43.591126    49840.073            0    50009.771    12.680407    22.409685    14.386294    19.443062    33.198821    29.354552    12.612127     22.30075    14.235163 
   48600    28.981577    50066.197            0    50179.021    12.691312    22.412519    14.386722    20.533972    33.482373    29.397406    12.612127     22.30075    14.235163 
   48800    40.522791    50190.538            0    50348.291     12.69627    22.411766    14.386697    21.029998    33.407053    29.394889    12.612127     22.30075    14.235163 
   49000    39.096274    50365.288            0    50517.488    12.694027    22.409019    14.387036    20.805634    33.132166      29.4288    12.612127     22.30075    14.235163 
   49200    31.896373    50562.554            0    50686.725    12.685132     22.40537     14.38689     19.91571    32.767103    29.414228    12.612127     22.30075    14.235163 
   49400    42.501451     50690.53            0    50855.986    12.680494    22.406521    14.387717    19.451707    32.882286    29.496936    12.612127     22.30075    14.235163 
   49600    41.643683    50863.043            0    51025.159    12.679602    22.407733    14.388597    19.362529    33.003567    29.585002    12.612127     22.30075    14.235163 
   49800    34.293721    51060.888            0    51194.392    12.682997    22.409747    14.389326    19.702178    33.205048    29.657859    12.612127     22.30075    14.235163 
   50000    38.406543    51214.168            0    51363.682    12.684735    22.410791    14.389309    19.875999    33.309463    29.656149    12.612127     22.30075    14.235163 
   50200    43.402727    51363.892            0    51532.856    12.683097    22.410833    14.389147    19.712092    33.313671    29.640021    12.612127     22.30075    14.235163 
   50400    37.041499    51557.854            0    51702.054    12.680751    22.411214    14.389396    19.477456    33.351818    29.664926    12.612127     22.30075    14.235163 
   50600    35.948287    51731.434            0    51871.379    12.680683    22.411725    14.389139    19.470657    33.402962    29.639178    12.612127     22.30075    14.235163 
   50800    44.369164    51867.827            0    52040.554    12.683822    22.413005    14.387898    19.784658    33.530961    29.515031    12.612127     22.30075    14.235163 
   51000    37.892092    52062.238            0    52209.749    12.686707    22.412498    14.386532    20.073312    33.480226      29.3784    12.612127     22.30075    14.235163 
   51200    34.006101    52246.629            0    52379.013    12.686344    22.409351    14.384069     20.03696    33.165387    29.131942    12.612127     22.30075    14.235163 
   51400     42.78545    52381.661            0    52548.222     12.68307    22.402455    14.381579    19.709408    32.475499    28.882913    12.612127     22.30075    14.235163 
   51600    38.589858     52567.19            0    52717.418    12.680485    22.398392    14.379381    19.450801    32.069016    28.662973    12.612127     22.30075    14.235163 
   51800    37.161385    52742.008            0    52886.675    12.681326    22.399419    14.377839    19.534964    32.171816    28.508699    12.612127     22.30075    14.235163 
   52000    43.008223    52888.447            0    53055.875     12.68462    22.404805    14.376181    19.864493    32.710609    28.342849    12.612127     22.30075    14.235163 
   52200    39.490413    53071.314            0    53225.047    12.687435    22.410773    14.374725    20.146134     33.30772    28.197185    12.612127     22.30075    14.235163 
   52400    30.423342    53275.908            0    53394.344    12.686231    22.416354    14.373075    20.025674       33.866    28.032123    12.612127     22.30075    14.235163 
   52600    40.882635     53404.44            0    53563.594    12.684012     22.41775     14.37048    19.803704    34.005669    27.772523    12.612127     22.30075    14.235163 
   52800    42.281979     53568.17            0    53732.771    12.683593     22.41625    14.368439    19.761796    33.855586     27.56833    12.612127     22.30075    14.235163 
   53000    34.652663    53767.131            0    53902.031    12.683571    22.411185    14.365561    19.759535    33.348851    27.280398    12.612127     22.30075    14.235163 
   53200    41.918236    53908.069            0    54071.254    12.682445    22.408697    14.361725    19.646905    33.099971    26.896625    12.612127     22.30075    14.235163 
   53400    41.234316    54079.902            0    54240.424    12.680603    22.407653    14.357592    19.462642    32.995528    26.483174    12.612127     22.30075    14.235163 
   53600    32.532963    54283.067            0    54409.715    12.679357    22.409726    14.352782    19.337957    33.202929    26.001919    12.612127     22.30075    14.235163 
   53800    40.066272    54422.966            0    54578.942    12.679605    22.415376    14.348032    19.362755    33.768146     25.52681    12.612127     22.30075    14.235163 
   54000    36.758058    54605.068            0    54748.164    12.681682    22.417004    14.342267    19.570566    33.931054    24.950024    12.612127     22.30075    14.235163 
   54200    38.187599    54768.805            0    54917.467    12.685336     22.41386    14.335455    19.936173    33.616519    24.268584    12.612127     22.30075    14.235163 
   54400    39.211417    54934.006            0    55086.654    12.690772    22.408526    14.328246    20.479993    33.082854     23.54729    12.612127     22.30075    14.235163 
   54600    31.786855    55132.184            0    55255.928    12.692498    22.409007    14.322205     20.65265    33.131009    22.942995    12.612127     22.30075    14.235163 
   54800    41.648417    55263.068            0    55425.202    12.687222    22.413111    14.316343     20.12478    33.541547     22.35658    12.612127     22.30075    14.235163 
   55000    37.728514    55447.557            0    55594.432    12.680925     22.41436    14.309176     19.49484    33.666516    21.639498    12.612127     22.30075    14.235163 
   55200    36.649472    55620.972            0    55763.646     12.67859    22.408498    14.301057    19.261214    33.080127    20.827329    12.612127     22.30075    14.235163 
   55400    37.255089    55787.874            0    55932.905    12.681814    22.398998    14.292237    19.583796    32.129691    19.944964    12.612127     22.30075    14.235163 
   55600    41.437329    55940.849            0    56102.162    12.684982      22.3962    14.283602    19.900755    31.849748    19.081022    12.612127     22.30075    14.235163 
   55800    32.800537    56143.678            0    56271.368    12.688944     22.40082     14.27487    20.297094    32.312001    18.207481    12.612127     22.30075    14.235163 
   56000    36.618858     56298.11            0    56440.665    12.690236     22.41127    14.266168    20.426378    33.357444    17.336914    12.612127     22.30075    14.235163 
   56200    43.894416    56438.973            0    56609.851    12.687715    22.423144    14.257487    20.174142    34.545317    16.468455    12.612127     22.30075    14.235163 
   56400    30.824057     56659.12            0    56779.116    12.683755    22.428345    14.249898    19.777921    35.065566    15.709203    12.612127     22.30075    14.235163 
   56600    43.358619    56779.567            0    56948.359    12.681472    22.419607    14.243104     19.54953     34.19141    15.029584    12.612127     22.30075    14.235163 
   56800    31.051746    56996.688            0    57117.571    12.680646    22.407216    14.236474    19.466907    32.951822    14.366276    12.612127     22.30075    14.235163 
   57000    39.805454    57131.903            0    57286.863     12.68257    22.402067    14.229673     19.65942      32.4367    13.685892    12.612127     22.30075    14.235163 
   57200    41.021957    57296.356            0    57456.052    12.686285     22.40574    14.223135    20.031048    32.804143    13.031778    12.612127     22.30075    14.235163 
   57400    29.727825    57509.638            0    57625.366    12.688386    22.409884    14.216662    20.241212    33.218763    12.384292    12.612127     22.30075    14.235163 
   57600    44.374144    57621.853            0    57794.599    12.686279    22.409766    14.210211    20.030479    33.206962    11.738846    12.612127     22.30075    14.235163 
   57800    31.155169    57842.531            0    57963.816    12.680606    22.409074    14.203082    19.462906    33.137711    11.025684    12.612127     22.30075    14.235163 
   58000    42.044103    57969.416            0    58133.091    12.676978    22.408238    14.196773     19.10002    33.054063    10.394527    12.612127     22.30075    14.235163 
   58200    38.989302     58150.49            0    58302.273    12.674178    22.407189    14.191723    18.819898    32.949132    9.8893172    12.612127     22.30075    14.235163 
   58400    32.954398    58343.283            0    58471.572    12.677679    22.408701    14.187319    19.170158    33.100358    9.4486652    12.612127     22.30075    14.235163 
   58600    42.447829    58475.529            0    58640.775    12.682514    22.409782    14.182163    19.653848    33.208524    8.9329382    12.612127     22.30075    14.235163 
   58800    40.067237    58654.009            0    58809.988    12.685712    22.410151    14.176278    19.973762    33.245424    8.3441354    12.612127     22.30075    14.235163 
   59000    34.684431    58844.228            0    58979.252    12.687318    22.409063    14.170019    20.134447    33.136645    7.7179365    12.612127     22.30075    14.235163 
   59200    41.993006    58984.985            0    59148.461    12.688272    22.409241    14.163162    20.229886    33.154433    7.0320338    12.612127     22.30075    14.235163 
   59400    35.478642    59179.576            0    59317.692     12.68618    22.411263    14.155444    20.020544    33.356742    6.2598885    12.612127     22.30075    14.235163 
   59600    40.607534     59328.88            0    59486.963    12.682453    22.409646    14.147665    19.647711    33.194959    5.4816819    12.612127     22.30075    14.235163 
   59800    42.835499    59489.404            0     59656.16    12.679855    22.405379    14.139985    19.387754    32.768009    4.7133624    12.612127     22.30075    14.235163 
   60000    40.079936    59669.295            0    59825.324    12.681948    22.401805    14.132559    19.597156    32.410502    3.9703716    12.612127     22.30075    14.235163 
   60200    35.169026    59857.705            0    59994.616    12.685606    22.404225    14.124655     19.96311    32.652591     3.179641    12.612127     22.30075    14.235163 
   60400      45.1627    59987.997            0    60163.812    12.686322    22.408657    14.116993    20.034773    33.095938    2.4131649    12.612127     22.30075    14.235163 
   60600    32.955302    60204.721            0    60333.014    12.685383    22.411865    14.109496    19.940857    33.416877    1.6631128    12.612127     22.30075    14.235163 
   60800     38.20692    60353.571            0    60502.308    12.680212    22.410961    14.102503    19.423508    33.326491    0.9635188    12.612127     22.30075    14.235163 
   61000    43.746256    60501.219            0    60671.521    12.676316    22.408978    14.095924    19.033776     33.12813   0.30532981    12.612127     22.30075    14.235163 
   61200    27.051912    60735.443            0    60840.754    12.677379    22.408452    14.089312    19.140062    33.075467   -0.3561344    12.612127     22.30075    14.235163 
   61400    43.453776    60840.837            0    61009.999    12.687771    22.412076    14.081743    20.179757    33.437982   -1.1133421    12.612127     22.30075    14.235163 
   61600    35.548448    61040.807            0    61179.194     12.69639    22.415873    14.073817    21.041998    33.817913   -1.9062553    12.612127     22.30075    14.235163 
   61800    37.000744    61204.448            0    61348.489     12.69357    22.418038    14.065969    20.759901    34.034443   -2.6913724    12.612127     22.30075    14.235163 
   62000    42.212851    61353.349            0    61517.681    12.682047    22.415498    14.059232     19.60706    33.780404   -3.3653715    12.612127     22.30075    14.235163 
   62200    38.174777    61538.265            0    61686.877    12.669652    22.411014    14.053397    18.367052    33.331774     -3.94912    12.612127     22.30075    14.235163 
   62400     37.39493    61710.579            0    61856.155    12.665591    22.410465    14.047303    17.960756    33.276911   -4.5587996    12.612127     22.30075    14.235163 
   62600    40.145799    61869.077            0    62025.362    12.671928    22.412166    14.040236     18.59476    33.447038   -5.2657434    12.612127     22.30075    14.235163 
   62800    30.440118    62076.084            0    62194.586    12.685712    22.414175    14.032385     19.97373    33.648017    -6.051211    12.612127     22.30075    14.235163 
   63000    44.472143    62190.722            0    62363.849    12.692826    22.414047    14.024798    20.685463    33.635252   -6.8102333    12.612127     22.30075    14.235163 
   63200    39.494445    62379.286            0    62533.036     12.69251    22.414044    14.017807    20.653791    33.634926   -7.5096107    12.612127     22.30075    14.235163 
   63400    34.460244    62568.156            0    62702.308      12.6853    22.414135    14.011418    19.932509    33.643978   -8.1487863    12.612127     22.30075    14.235163 
   63600    40.769621    62712.832            0    62871.546    12.681299    22.414477    14.006378    19.532268    33.678236   -8.6530393    12.612127     22.30075    14.235163 
   63800    34.466924    62906.565            0    63040.743     12.68073    22.412111    14.003138    19.475382    33.441519   -8.9770938    12.612127     22.30075    14.235163 
   64000    40.690754    63051.633            0    63210.039    12.681951    22.411716    14.000066    19.597514     33.40203   -9.2844865    12.612127     22.30075    14.235163 
   64200     39.63709    63224.902            0    63379.207    12.682322    22.409437    13.996388    19.634632    33.174008   -9.6523684    12.612127     22.30075    14.235163 
   64400    32.208381    63423.089            0    63548.474     12.68522    22.410503    13.991868    19.924552    33.280642   -10.104605    12.612127     22.30075    14.235163 
   64600    45.277461    63541.439            0    63717.701    12.690772    22.414958    13.985452    20.479974    33.726339   -10.746468    12.612127     22.30075    14.235163 
   64800    42.238692    63722.457            0     63886.89    12.693234    22.417798    13.978687    20.726229    34.010466    -11.42326    12.612127     22.30075    14.235163 
   65000    30.012732    63939.331            0    64056.169    12.687909    22.416239    13.972173    20.193521    33.854487   -12.074962    12.612127     22.30075    14.235163 
   65200    41.533192    64063.694            0     64225.38    12.677855    22.410459    13.965953    19.187707    33.276238   -12.697165    12.612127     22.30075    14.235163 
   65400     38.34277    64245.331            0    64394.597    12.671655    22.408438    13.960152    18.567439    33.074069   -13.277583    12.612127     22.30075    14.235163 
   65600    38.742602    64413.036            0    64563.858    12.675412    22.409589    13.955463     18.94332    33.189216   -13.746661    12.612127     22.30075    14.235163 
   65800    37.071441    64588.812            0    64733.129    12.683931    22.409991    13.952384    19.795592    33.229401   -14.054709    12.612127     22.30075    14.235163 
   66000    38.586627    64752.102            0    64902.318    12.688838    22.407876    13.950661    20.286473    33.017827   -14.227045    12.612127     22.30075    14.235163 
   66200    38.811523    64920.477            0    65071.568    12.686788    22.407124    13.949229    20.081386    32.942649   -14.370285    12.612127     22.30075    14.235163 
   66400    43.485646    65071.525            0    65240.812    12.677139    22.407672    13.946014    19.116097    32.997398   -14.691945    12.612127     22.30075    14.235163 
   66600    37.495289    65264.029            0    65409.996    12.668497    22.410944    13.941742    18.251541    33.324791   -15.119304    12.612127     22.30075    14.235163 
   66800    37.254185    65434.227            0    65579.255    12.669083    22.414072    13.937135    18.310164     33.63775   -15.580235    12.612127     22.30075    14.235163 
   67000    44.176593     65576.51            0    65748.486    12.678726    22.415511    13.933194     19.27487     33.78164   -15.974452    12.612127     22.30075    14.235163 
   67200     33.03491    65789.107            0     65917.71    12.689285    22.411604    13.929259    20.331226    33.390811   -16.368097    12.612127     22.30075    14.235163 
   67400    34.306205    65953.417            0    66086.969    12.689348    22.406614    13.925629    20.337524    32.891566    -16.73129    12.612127     22.30075    14.235163 
   67600    43.263472    66087.742            0    66256.164    12.680581    22.406568    13.923566    19.460445    32.886965   -16.937675    12.612127     22.30075    14.235163 
   67800    39.637444    66271.095            0    66425.401    12.673346    22.406644    13.922604    18.736594    32.894651   -17.033899    12.612127     22.30075    14.235163 
   68000    37.772362    66447.624            0    66594.669    12.675622    22.409436    13.923005    18.964356    33.173918   -16.993771    12.612127     22.30075    14.235163 
   68200    37.229728    66618.965            0    66763.898    12.684508    22.410898    13.923673    19.853292     33.32022   -16.926985    12.612127     22.30075    14.235163 
   68400    37.798551    66785.957            0    66933.104    12.688469    22.409955    13.923044    20.249558    33.225869   -16.989881    12.612127     22.30075    14.235163 
   68600    33.208629    66973.053            0    67102.332    12.686092    22.406964    13.921734    20.011803    32.926638   -17.120912    12.612127     22.30075    14.235163 
   68800    36.949501    67127.764            0    67271.606    12.682191    22.406215    13.921641    19.621512    32.851732   -17.130296    12.612127     22.30075    14.235163 
   69000    44.864614    67266.164            0     67440.82     12.68508    22.410792    13.923022    19.910523    33.309616   -16.992144    12.612127     22.30075    14.235163 
   69200    27.512849     67502.95            0    67610.056    12.689372    22.414862     13.92437     20.33991    33.716787   -16.857194    12.612127     22.30075    14.235163 
   69400    37.364795    67633.883            0    67779.341    12.684073    22.413092    13.923673    19.809785    33.539665   -16.926959    12.612127     22.30075    14.235163 
   69600    46.444176    67767.718            0    67948.523    12.675128    22.407228    13.921939    18.914906    32.953025   -17.100434    12.612127     22.30075    14.235163 
   69800    27.549153    68010.528            0    68117.775    12.670744    22.403315    13.919423    18.476294    32.561607   -17.352101    12.612127     22.30075    14.235163 
   70000    42.496527    68121.621            0    68287.057    12.679505    22.408056    13.917205    19.352806    33.035892   -17.574021    12.612127     22.30075    14.235163 
   70200    45.044915    68280.849            0    68456.206    12.690369    22.413886    13.916084    20.439607     33.61915   -17.686197    12.612127     22.30075    14.235163 
   70400    33.044854    68496.881            0    68625.522    12.694568    22.416347    13.914615    20.859672    33.865317   -17.833166    12.612127     22.30075    14.235163 
   70600    42.359534    68629.814            0    68794.717    12.690307    22.412195    13.912836    20.433425    33.449911   -18.011172    12.612127     22.30075    14.235163 
   70800    35.322646    68826.396            0    68963.904     12.68409    22.409802    13.910311    19.811499    33.210534   -18.263764    12.612127     22.30075    14.235163 
   71000     38.81241    68982.165            0     69133.26    12.682343    22.412427    13.907533    19.636664    33.473136   -18.541691    12.612127     22.30075    14.235163 
   71200     46.64351    69120.849            0    69302.429    12.684215    22.415135    13.905313    19.823939    33.744087   -18.763725    12.612127     22.30075    14.235163 
   71400    17.648916     69402.97            0    69471.676    12.685199    22.415095    13.903465    19.922435    33.740044    -18.94863    12.612127     22.30075    14.235163 
   71600    45.727775    69462.942            0    69640.957    12.681162    22.408506    13.901759    19.518522    33.080902   -19.119267    12.612127     22.30075    14.235163 
   71800    41.416117    69648.889            0     69810.12     12.67709    22.400279    13.900211    19.111206    32.257824   -19.274149    12.612127     22.30075    14.235163 
   72000    30.705131    69859.893            0    69979.426    12.677086    22.397793    13.899126    19.110769    32.009126   -19.382692    12.612127     22.30075    14.235163 
   72200     45.42146    69971.811            0    70148.634    12.679951    22.403077    13.896722    19.397444     32.53773   -19.623187    12.612127     22.30075    14.235163 
   72400    33.683664    70186.721            0     70317.85    12.683104    22.410613    13.893485    19.712852    33.291621   -19.947059    12.612127     22.30075    14.235163 
   72600    43.641767    70317.198            0    70487.093    12.685117    22.412526    13.890437    19.914191     33.48304   -20.251994    12.612127     22.30075    14.235163 
   72800    34.997756    70520.052            0    70656.296    12.687655    22.411219    13.888148    20.168135    33.352269   -20.481003    12.612127     22.30075    14.235163 
   73000    43.930604    70654.493            0    70825.513    12.687183    22.410823    13.886617     20.12095    33.312683   -20.634109    12.612127     22.30075    14.235163 
   73200    45.492304    70817.619            0    70994.718    12.683395    22.413718    13.884156    19.741941    33.602293   -20.880293    12.612127     22.30075    14.235163 
   73400    38.861319    71012.655            0     71163.94    12.677513    22.415088    13.881255    19.153536    33.739362   -21.170516    12.612127     22.30075    14.235163 
   73600    37.945352    71185.424            0    71333.142    12.676521    22.414847    13.878597    19.054282    33.715291   -21.436492    12.612127     22.30075    14.235163 
   73800    41.760605    71339.758            0    71502.329    12.682664    22.412633    13.875196    19.668813    33.493791    -21.77668    12.612127     22.30075    14.235163 
   74000    43.760775    71501.203            0    71671.561    12.686692    22.412646    13.871146    20.071767    33.495094   -22.181871    12.612127     22.30075    14.235163 
   74200    37.976164    71692.941            0     71840.78    12.687373    22.412479    13.867549    20.139939    33.478305   -22.541765    12.612127     22.30075    14.235163 
   74400    40.461895    71852.453            0    72009.969    12.684231    22.411655      13.8636    19.825589    33.395884    -22.93681    12.612127     22.30075    14.235163 
   74600    43.893369    72008.273            0    72179.147    12.686568    22.409246    13.859219    20.059425    33.154908   -23.375071    12.612127     22.30075    14.235163 
   74800    39.562892    72194.354            0    72348.369    12.692255    22.408916    13.853555    20.628347    33.121875   -23.941674    12.612127     22.30075    14.235163 
   75000    40.749266    72358.994            0    72517.628    12.696104    22.411111    13.847488    21.013393     33.34151   -24.548659    12.612127     22.30075    14.235163 
   75200    42.576958    72521.051            0      72686.8     12.69277    22.414135    13.841635      20.6798    33.643981   -25.134203    12.612127     22.30075    14.235163 
   75400    29.254152    72742.203            0    72856.088    12.684414    22.415093    13.837365    19.843929    33.739871   -25.561377    12.612127     22.30075    14.235163 
   75600     46.58517     72843.95            0    73025.303    12.680862    22.413355    13.835234    19.488502    33.565935   -25.774604    12.612127     22.30075    14.235163 
   75800    27.624055    73086.968            0    73194.507    12.681189    22.409353    13.833662    19.521224    33.165639   -25.931873    12.612127     22.30075    14.235163 
   76000    47.843544    73177.533            0    73363.784     12.68479    22.406055    13.833545    19.881497    32.835647   -25.943537    12.612127     22.30075    14.235163 
   76200    44.807466    73358.505            0    73532.937    12.685575     22.40387    13.833166    19.960037    32.617047   -25.981474    12.612127     22.30075    14.235163 
   76400    35.532091    73563.849            0    73702.174    12.683154    22.406803    13.832014    19.717868    32.910548   -26.096748    12.612127     22.30075    14.235163 
   76600    45.539491    73694.099            0    73871.381    12.681482    22.411904    13.830002    19.550565    33.420804   -26.298042    12.612127     22.30075    14.235163 
   76800    36.977346    73896.601            0    74040.551    12.678584    22.417193    13.826552    19.260664    33.949981   -26.643143    12.612127     22.30075    14.235163 
   77000    41.883399    74046.754            0    74209.803    12.677475    22.413788    13.823339    19.149666    33.609257   -26.964578    12.612127     22.30075    14.235163 
   77200    42.697331    74212.782            0        74379    12.677968      22.4085    13.820139    19.199058    33.080296   -27.284707    12.612127     22.30075    14.235163 
   77400    35.809333    74408.843            0    74548.247    12.678864    22.408712    13.816815    19.288638    33.101539    -27.61725    12.612127     22.30075    14.235163 
   77600    46.903692    74534.827            0     74717.42    12.677236    22.412154     13.81474    19.125837    33.445829   -27.824865    12.612127     22.30075    14.235163 
   77800    29.743778    74770.858            0    74886.649    12.678207    22.416412    13.812941    19.222883    33.871794   -28.004784    12.612127     22.30075    14.235163 
   78000    46.219363    74875.924            0    75055.853    12.685172    22.418047    13.810941      19.9197    34.035393   -28.204921    12.612127     22.30075    14.235163 
   78200    32.893505    75097.011            0    75225.063    12.690255    22.417443    13.807774    20.428267    33.974969   -28.521756    12.612127     22.30075    14.235163 
   78400    45.438273    75217.397            0    75394.285     12.69167    22.410467    13.804429    20.569749    33.277074   -28.856406    12.612127     22.30075    14.235163 
   78600    40.347118    75406.399            0    75563.468    12.689188    22.402239    13.802019    20.321533    32.453908   -29.097528    12.612127     22.30075    14.235163 
   78800    40.226154    75576.085            0    75732.683    12.685313    22.403351    13.800512    19.933878    32.565116   -29.248255    12.612127     22.30075    14.235163 
   79000    44.360107    75729.187            0    75901.879     12.68509    22.412194    13.798263    19.911522    33.449824    -29.47328    12.612127     22.30075    14.235163 
   79200    41.065439    75911.225            0    76071.091    12.686484    22.420484    13.795411    20.050999    34.279187   -29.758532    12.612127     22.30075    14.235163 
   79400    40.708845    76081.809            0    76240.286    12.689568    22.423367    13.792016     20.35955    34.567574   -30.098239    12.612127     22.30075    14.235163 
   79600    41.857111    76246.555            0    76409.502    12.692118    22.420086    13.788778    20.614607    34.239367   -30.422104    12.612127     22.30075    14.235163 
   79800    44.582141    76405.116            0    76578.672    12.692782    22.414226    13.785735    20.681047    33.653117   -30.726527    12.612127     22.30075    14.235163 
   80000      35.3697    76610.194            0    76747.886    12.689853    22.408188     13.78302    20.388015    33.049067   -30.998189    12.612127     22.30075    14.235163 
   80200    48.154276    76729.603            0    76917.064    12.686736    22.408382    13.780215    20.076218    33.068513   -31.278826    12.612127     22.30075    14.235163 
   80400    33.467022    76955.989            0    77086.274    12.683699    22.409791    13.777517     19.77233    33.209385   -31.548711    12.612127     22.30075    14.235163 
   80600    47.488463    77070.614            0    77255.484    12.681924    22.409229    13.773674      19.5948    33.153202   -31.933168    12.612127     22.30075    14.235163 
   80800    40.626609    77266.493            0     77424.65    12.680649    22.409739    13.770334    19.467221    33.204227   -32.267337    12.612127     22.30075    14.235163 
   81000    41.744283    77431.367            0    77593.875    12.679239    22.414438    13.766843    19.326195    33.674293   -32.616564    12.612127     22.30075    14.235163 
   81200    41.869983    77600.049            0    77763.046    12.681549    22.412912    13.762519    19.557235     33.52167   -33.049187    12.612127     22.30075    14.235163 
   81400    41.867256    77769.308            0    77932.295    12.687652    22.405041     13.75848    20.167794    32.734234   -33.453218    12.612127     22.30075    14.235163 
   81600      38.9504    77949.853            0    78101.485    12.693134    22.399103    13.755403    20.716258    32.140214   -33.761065    12.612127     22.30075    14.235163 
   81800    37.368813    78125.263            0    78270.737    12.688051    22.398301     13.75291    20.207726    32.059914   -34.010488    12.612127     22.30075    14.235163 
   82000    45.359236    78263.348            0    78439.928    12.674993    22.399303     13.75034     18.90143     32.16021   -34.267548    12.612127     22.30075    14.235163 
   82200    32.383759    78483.124            0    78609.192    12.666949    22.403297    13.748325    18.096666    32.559738   -34.469092    12.612127     22.30075    14.235163 
   82400     41.13781    78618.249            0    78778.395    12.671288    22.410834    13.745744    18.530693    33.313734   -34.727375    12.612127     22.30075    14.235163 
   82600    40.631692    78789.448            0    78947.625    12.683552    22.416844    13.743646    19.757631     33.91505   -34.937226    12.612127     22.30075    14.235163 
   82800     44.99058    78941.666            0    79116.812    12.690986    22.414513    13.741398    20.501394    33.681882   -35.162127    12.612127     22.30075    14.235163 
   83000    33.506728    79155.621            0    79286.061    12.690263    22.409527    13.738872    20.429022    33.183027   -35.414819    12.612127     22.30075    14.235163 
   83200    40.927241    79295.926            0    79455.253    12.681298    22.407018    13.737818    19.532205    32.932011    -35.52031    12.612127     22.30075    14.235163 
   83400    33.487675    79494.119            0    79624.485    12.676511    22.408842    13.737463     19.05331    33.114448    -35.55579    12.612127     22.30075    14.235163 
   83600    48.737225    79603.949            0     79793.68     12.67939    22.411056    13.736775     19.34133    33.336003   -35.624628    12.612127     22.30075    14.235163 
   83800    30.900789    79842.599            0    79962.893    12.683228    22.412134    13.736408    19.725207    33.443835   -35.661388    12.612127     22.30075    14.235163 
   84000    48.487873    79943.334            0    80132.094    12.680432    22.409271    13.735265    19.445485    33.157393   -35.775728    12.612127     22.30075    14.235163 
[...]
  492800    177.49968     59211161            0     59211852     12.68331    22.410346    13.178958    19.733433     33.26491   -91.429755    12.612127     22.30075    14.235163 
  493000     163.5715     59210672            0     59211309    12.683288    22.410337     13.17903    19.731214    33.264026   -91.422543    12.612127     22.30075    14.235163 
  493200    181.47456     59212106            0     59212813    12.683322    22.410303    13.179131    19.734615    33.260652   -91.412488    12.612127     22.30075    14.235163 
  493400    198.60391     59211717            0     59212490      12.6833    22.410348    13.179043    19.732408    33.265196    -91.42123    12.612127     22.30075    14.235163 
  493600    220.02647     59211711            0     59212567    12.683301     22.41037    13.179203    19.732548    33.267396   -91.405216    12.612127     22.30075    14.235163 
  493800    227.68275     59211122            0     59212009     12.68332    22.410376    13.179046    19.734438    33.267939   -91.420923    12.612127     22.30075    14.235163 
  494000    189.99435     59211218            0     59211958    12.683322    22.410369    13.179031    19.734697    33.267292    -91.42244    12.612127     22.30075    14.235163 
  494200      299.695     59212020            0     59213187      12.6833    22.410323    13.179372    19.732455    33.262653   -91.388393    12.612127     22.30075    14.235163 
  494400    268.97944     59211398            0     59212445    12.683308    22.410349     13.17924    19.733231    33.265284   -91.401563    12.612127     22.30075    14.235163 
  494600    186.72401     59211373            0     59212100    12.683315    22.410355    13.178914    19.733902    33.265882    -91.43416    12.612127     22.30075    14.235163 
  494800    294.32557     59210770            0     59211916    12.683316    22.410353     13.17905    19.734001    33.265678   -91.420559    12.612127     22.30075    14.235163 
  495000    214.62492     59211873            0     59212708    12.683338    22.410356     13.17909    19.736273    33.265977   -91.416566    12.612127     22.30075    14.235163 
  495200    259.20964     59211946            0     59212955    12.683321    22.410336    13.179061    19.734556    33.263981   -91.419422    12.612127     22.30075    14.235163 
  495400    227.60082     59212026            0     59212912    12.683316    22.410337    13.179169    19.734089    33.264054   -91.408682    12.612127     22.30075    14.235163 
  495600    329.19882     59211056            0     59212338    12.683321    22.410327    13.178945    19.734499    33.263073   -91.431097    12.612127     22.30075    14.235163 
  495800    91.592054     59212749            0     59213105    12.683327    22.410353    13.178697     19.73517    33.265634   -91.455894    12.612127     22.30075    14.235163 
  496000    294.58286     59212126            0     59213273    12.683309    22.410331    13.178842    19.733393    33.263485   -91.441416    12.612127     22.30075    14.235163 
  496200    275.37331     59212038            0     59213110    12.683311    22.410353     13.17892    19.733552    33.265702   -91.433541    12.612127     22.30075    14.235163 
  496400    342.88395     59211491            0     59212825    12.683333    22.410374    13.178973    19.735712    33.267799   -91.428306    12.612127     22.30075    14.235163 
  496600    165.36367     59212438            0     59213082    12.683318    22.410354    13.178903    19.734264    33.265757   -91.435284    12.612127     22.30075    14.235163 
  496800    326.46453     59211122            0     59212392    12.683321    22.410344    13.178716    19.734578    33.264791   -91.454025    12.612127     22.30075    14.235163 
  497000    285.77538     59212948            0     59214061    12.683346    22.410349    13.179309    19.737095    33.265282   -91.394619    12.612127     22.30075    14.235163 
  497200    425.63689     59211953            0     59213610    12.683315    22.410313    13.179196    19.733922    33.261652   -91.405998    12.612127     22.30075    14.235163 
  497400    254.71288     59211602            0     59212593    12.683312     22.41036    13.178974    19.733661    33.266389   -91.428126    12.612127     22.30075    14.235163 
  497600    111.21344     59211443            0     59211876    12.683343    22.410366    13.179028    19.736721    33.266912   -91.422734    12.612127     22.30075    14.235163 
  497800    332.99712     59211694            0     59212990    12.683347    22.410353    13.178913    19.737182    33.265692   -91.434245    12.612127     22.30075    14.235163 
  498000    273.56448     59211340            0     59212405    12.683315    22.410349    13.179128    19.733968     33.26526    -91.41273    12.612127     22.30075    14.235163 
  498200     181.5857     59211908            0     59212615    12.683317    22.410353    13.179044     19.73419     33.26567   -91.421113    12.612127     22.30075    14.235163 
  498400    369.19647     59211539            0     59212977    12.683339     22.41034    13.179116    19.736313    33.264397   -91.413991    12.612127     22.30075    14.235163 
  498600    243.23889     59211817            0     59212764    12.683308    22.410341    13.179042    19.733229    33.264442   -91.421323    12.612127     22.30075    14.235163 
  498800    270.86066     59212388            0     59213442    12.683304    22.410336    13.178969    19.732851    33.263954   -91.428658    12.612127     22.30075    14.235163 
  499000    183.95871     59212086            0     59212802    12.683342    22.410364    13.179034    19.736698     33.26673   -91.422188    12.612127     22.30075    14.235163 
  499200    290.07591     59210970            0     59212099    12.683326    22.410381     13.17893    19.735009     33.26847   -91.432551    12.612127     22.30075    14.235163 
  499400    66.068284     59210876            0     59211134    12.683302    22.410342    13.179058    19.732631    33.264513   -91.419732    12.612127     22.30075    14.235163 
  499600    309.41822     59212510            0     59213714    12.683332    22.410343    13.179181    19.735634    33.264672   -91.407494    12.612127     22.30075    14.235163 
  499800    264.44184     59211529            0     59212558    12.683298    22.410375    13.178835    19.732218    33.267863   -91.442064    12.612127     22.30075    14.235163 
  500000    383.91235     59212293            0     59213788    12.683319    22.410353    13.178967      19.7343    33.265659   -91.428885    12.612127     22.30075    14.235163 
  500200    263.23159     59212028            0     59213053    12.683211    22.410335    13.178953    19.723589    33.263887   -91.430232    12.612127     22.30075    14.235163 
  500400    247.75622     59212296            0     59213261    12.683329    22.410352    13.179178    19.735365    33.265604   -91.407781    12.612127     22.30075    14.235163 
  500600    105.62346     59211704            0     59212115    12.683308    22.410335    13.179019    19.733254    33.263904   -91.423638    12.612127     22.30075    14.235163 
  500800    269.69659     59212053            0     59213103    12.683315    22.410352    13.179077    19.733992    33.265579   -91.417892    12.612127     22.30075    14.235163 
  501000     178.9582     59210375            0     59211072    12.683327    22.410349    13.179166    19.735098    33.265297   -91.408912    12.612127     22.30075    14.235163 
  501200    324.41402     59211966            0     59213229    12.683321    22.410363    13.178894    19.734566    33.266702   -91.436157    12.612127     22.30075    14.235163 
  501400    281.06884     59211924            0     59213018    12.683318    22.410353    13.178918    19.734287    33.265655   -91.433817    12.612127     22.30075    14.235163 
  501600    151.39818     59212338            0     59212928    12.683326    22.410352    13.179136    19.735003    33.265536   -91.411952    12.612127     22.30075    14.235163 
  501800     456.9689     59212387            0     59214166    12.683312    22.410353    13.179161    19.733682    33.265692    -91.40945    12.612127     22.30075    14.235163 
  502000      341.686     59211620            0     59212951    12.683298    22.410365    13.179247    19.732252    33.266835   -91.400872    12.612127     22.30075    14.235163 
  502200    246.78692     59211673            0     59212634    12.683337    22.410353    13.179023    19.736185    33.265673    -91.42322    12.612127     22.30075    14.235163 
  502400     390.8208     59212689            0     59214210     12.68332    22.410336    13.178912    19.734469    33.263969   -91.434335    12.612127     22.30075    14.235163 
  502600    229.38545     59211124            0     59212017    12.683309    22.410351    13.179097    19.733337    33.265426   -91.415882    12.612127     22.30075    14.235163 
  502800    282.04082     59212262            0     59213360    12.683314    22.410353    13.179202    19.733844    33.265657   -91.405339    12.612127     22.30075    14.235163 
  503000    301.44079     59212370            0     59213543    12.683312    22.410354    13.178974    19.733636    33.265715   -91.428211    12.612127     22.30075    14.235163 
  503200    89.879405     59211310            0     59211660    12.683308    22.410362    13.178945    19.733223     33.26659   -91.431056    12.612127     22.30075    14.235163 
  503400    349.00981     59210701            0     59212059     12.68331    22.410354     13.17898    19.733401    33.265712    -91.42759    12.612127     22.30075    14.235163 
  503600    298.54878     59212320            0     59213482    12.683303    22.410345    13.179032    19.732764    33.264827   -91.422385    12.612127     22.30075    14.235163 
  503800    317.91465     59212064            0     59213301    12.683295    22.410352    13.179143    19.731972    33.265565   -91.411245    12.612127     22.30075    14.235163 
  504000    155.87585     59212054            0     59212661    12.683341    22.410332     13.17876    19.736567    33.263606   -91.449566    12.612127     22.30075    14.235163 
  504200    412.98813     59210589            0     59212197    12.683304    22.410315       13.179     19.73281    33.261895   -91.425593    12.612127     22.30075    14.235163 
  504400    258.99735     59212787            0     59213795    12.683316    22.410353    13.178916    19.733998    33.265679   -91.433937    12.612127     22.30075    14.235163 
  504600    242.11642     59213865            0     59214807    12.683315    22.410354    13.178704    19.733967    33.265761    -91.45522    12.612127     22.30075    14.235163 
  504800    160.28777     59212459            0     59213083    12.683316    22.410353    13.178859    19.734021    33.265686   -91.439637    12.612127     22.30075    14.235163 
  505000    295.23142     59212181            0     59213330     12.68327    22.410377    13.179294    19.729462    33.268078   -91.396187    12.612127     22.30075    14.235163 
  505200    79.874299     59211301            0     59211612    12.683305    22.410321    13.179079    19.732934    33.262506   -91.417632    12.612127     22.30075    14.235163 
  505400    127.47044     59211856            0     59212353    12.683316    22.410389    13.178964     19.73403    33.269276   -91.429133    12.612127     22.30075    14.235163 
  505600    277.25853     59211854            0     59212934     12.68331    22.410378    13.178878    19.733433    33.268206   -91.437811    12.612127     22.30075    14.235163 
  505800     256.7564     59212979            0     59213979      12.6833    22.410346    13.178671    19.732455    33.264921   -91.458429    12.612127     22.30075    14.235163 
  506000    193.28818     59211814            0     59212566    12.683316    22.410353      13.1788    19.734041    33.265685   -91.445541    12.612127     22.30075    14.235163 
  506200    115.01743     59212443            0     59212891    12.683328    22.410375    13.178362    19.735221    33.267865   -91.489441    12.612127     22.30075    14.235163 
  506400    415.40069     59213673            0     59215290    12.683354     22.41035    13.178331     19.73788    33.265309   -91.492526    12.612127     22.30075    14.235163 
  506600    216.44324     59212842            0     59213684    12.683325    22.410379    13.178928    19.734993    33.268243   -91.432753    12.612127     22.30075    14.235163 
  506800    312.99672     59212868            0     59214087    12.683326    22.410344    13.178905    19.735064    33.264759   -91.435108    12.612127     22.30075    14.235163 
  507000    211.71257     59212164            0     59212988    12.683368    22.410321    13.178821    19.739242     33.26247   -91.443448    12.612127     22.30075    14.235163 
  507200    216.50958     59212016            0     59212859    12.683336    22.410357    13.179135    19.736073    33.266094    -91.41201    12.612127     22.30075    14.235163 
  507400    263.25364     59211628            0     59212653    12.683278    22.410346    13.179142    19.730279    33.264953   -91.411399    12.612127     22.30075    14.235163 
  507600    66.902738     59211619            0     59211880    12.683292    22.410354     13.17908     19.73163    33.265787   -91.417575    12.612127     22.30075    14.235163 
  507800    275.12326     59214033            0     59215104    12.683333    22.410321    13.178732    19.735751     33.26248   -91.452389    12.612127     22.30075    14.235163 
  508000    298.67732     59212018            0     59213180    12.683289    22.410353    13.179109    19.731347    33.265674   -91.414621    12.612127     22.30075    14.235163 
  508200    183.81746     59212749            0     59213464     12.68331    22.410377    13.178921    19.733433     33.26802   -91.433451    12.612127     22.30075    14.235163 
  508400    177.84659     59211504            0     59212196    12.683327     22.41033    13.179128    19.735185    33.263333   -91.412723    12.612127     22.30075    14.235163 
  508600    105.16309     59211370            0     59211779    12.683315    22.410342    13.178962    19.733918    33.264596   -91.429319    12.612127     22.30075    14.235163 
  508800     161.8554     59211422            0     59212052    12.683314    22.410353    13.178906    19.733863    33.265686   -91.435018    12.612127     22.30075    14.235163 
  509000    244.71576     59210310            0     59211263    12.683295    22.410358    13.178858    19.731901    33.266123   -91.439735    12.612127     22.30075    14.235163 
  509200    225.68421     59211361            0     59212239    12.683314    22.410354    13.178928    19.733818     33.26573   -91.432739    12.612127     22.30075    14.235163 
  509400    56.790657     59213126            0     59213347    12.683315    22.410353    13.179067     19.73399    33.265627   -91.418847    12.612127     22.30075    14.235163 
  509600     221.8131     59212147            0     59213010    12.683316    22.410354    13.179047    19.734045    33.265747   -91.420876    12.612127     22.30075    14.235163 
  509800    353.94395     59211404            0     59212782    12.683305    22.410353    13.179079    19.732913     33.26568   -91.417711    12.612127     22.30075    14.235163 
  510000    158.24608     59212368            0     59212985    12.683303    22.410354     13.17918    19.732713    33.265749   -91.407535    12.612127     22.30075    14.235163 
  510200    375.63225     59211285            0     59212747    12.683311    22.410362    13.179026    19.733554     33.26656   -91.422984    12.612127     22.30075    14.235163 
  510400    342.91029     59210701            0     59212036    12.683312    22.410341     13.17898    19.733631    33.264445   -91.427576    12.612127     22.30075    14.235163 
  510600    88.042059     59212229            0     59212571    12.683357    22.410362    13.179096    19.738198    33.266557   -91.415984    12.612127     22.30075    14.235163 
  510800    446.62351     59210931            0     59212669    12.683313    22.410353    13.179048    19.733782    33.265684   -91.420767    12.612127     22.30075    14.235163 
  511000    183.75407     59211367            0     59212082    12.683351     22.41038    13.179121    19.737581    33.268354   -91.413429    12.612127     22.30075    14.235163 
  511200    508.60127     59212702            0     59214682    12.683326    22.410348    13.179144    19.735084    33.265192   -91.411208    12.612127     22.30075    14.235163 
  511400    315.66804     59211618            0     59212847    12.683305    22.410344    13.179114    19.732938    33.264715   -91.414133    12.612127     22.30075    14.235163 
  511600    75.043716     59212876            0     59213168    12.683316    22.410353    13.179212    19.733999    33.265679   -91.404369    12.612127     22.30075    14.235163 
  511800    333.02949     59211105            0     59212401    12.683306    22.410348    13.179112    19.733017    33.265149   -91.414372    12.612127     22.30075    14.235163 
  512000    427.03503     59212592            0     59214255    12.683311    22.410346     13.17902    19.733547    33.264996    -91.42355    12.612127     22.30075    14.235163 
  512200    113.41115     59211946            0     59212388    12.683328    22.410317    13.179147    19.735252    33.262032   -91.410809    12.612127     22.30075    14.235163 
  512400    218.84862     59211467            0     59212319    12.683333    22.410336    13.179145    19.735749    33.263909   -91.411051    12.612127     22.30075    14.235163 
  512600    173.82022     59211634            0     59212311    12.683326    22.410363    13.179135    19.735038    33.266645    -91.41201    12.612127     22.30075    14.235163 
  512800    331.57639     59212322            0     59213613    12.683371    22.410352    13.178856      19.7395     33.26552   -91.439982    12.612127     22.30075    14.235163 
  513000    275.59947     59210527            0     59211599    12.683311    22.410349    13.179198    19.733505    33.265259    -91.40578    12.612127     22.30075    14.235163 
  513200    133.20581     59211782            0     59212300    12.683291    22.410314    13.179183    19.731592    33.261785   -91.407258    12.612127     22.30075    14.235163 
  513400    236.93307     59214115            0     59215038    12.683303     22.41037    13.179358     19.73271     33.26731   -91.389707    12.612127     22.30075    14.235163 
  513600    407.24011     59211276            0     59212861    12.683287    22.410355    13.178999    19.731124    33.265839     -91.4257    12.612127     22.30075    14.235163 
  513800    245.38181     59212343            0     59213298    12.683327    22.410351    13.179157    19.735152    33.265506   -91.409906    12.612127     22.30075    14.235163 
  514000    323.96666     59212060            0     59213321    12.683305    22.410324    13.178969    19.732902    33.262789    -91.42866    12.612127     22.30075    14.235163 
  514200    326.97634     59211811            0     59213083    12.683342     22.41037    13.178982    19.736605    33.267342   -91.427382    12.612127     22.30075    14.235163 
  514400    255.05812     59212100            0     59213093    12.683322    22.410371    13.178845     19.73464    33.267483   -91.441094    12.612127     22.30075    14.235163 
  514600    365.27167     59211350            0     59212772    12.683285    22.410363    13.179068    19.730977    33.266643    -91.41877    12.612127     22.30075    14.235163 
  514800    314.97318     59212847            0     59214073    12.683308    22.410366    13.179078    19.733246    33.266974     -91.4178    12.612127     22.30075    14.235163 
  515000    266.14741     59212724            0     59213761    12.683304    22.410373    13.178722    19.732813  