LAMMPS data file. CGCMM style. atom_style full generated by VMD/TopoTools v1.5 on Tue Apr 04 10:45:39 PDT 2017
 2609 atoms
 0 bonds
 0 angles
 0 dihedrals
 0 impropers
 10 atom types
 0 bond types
 0 angle types
 0 dihedral types
 0 improper types
 0.451838 52.642840  xlo xhi
 0.325101 45.523500  ylo yhi
 -0.407500 27.119741  zlo zhi

# Pair Coeffs
#
# 1  CH4
# 2  Ca
# 3  Cb
# 4  Cc
# 5  Cd
# 6  H
# 7  Oa
# 8  Ob
# 9  Oc
# 10  Zn

 Masses

 1 16.040001 # CH4
 2 12.011000 # Ca
 3 12.011000 # Cb
 4 12.011000 # Cc
 5 12.011000 # Cd
 6 1.008000 # H
 7 15.999000 # Oa
 8 15.999000 # Ob
 9 15.999000 # Oc
 10 65.379997 # Zn

 Atoms

1 1 1 0.000000 52.190678 45.197601 16.516001 # CH4 
2 2 1 0.000000 52.190678 45.197601 22.021999 # CH4 
3 3 1 0.000000 52.190678 45.197601 0.000000 # CH4 
4 4 1 0.000000 52.190678 45.197601 5.505000 # CH4 
5 5 1 0.000000 52.190678 45.197601 11.011000 # CH4 
6 6 1 0.000000 52.190678 22.599600 16.516001 # CH4 
7 7 1 0.000000 52.190678 22.599600 22.021999 # CH4 
8 8 1 0.000000 52.190678 22.599600 0.000000 # CH4 
9 9 1 0.000000 52.190678 22.599600 5.505000 # CH4 
10 10 1 0.000000 52.190678 22.599600 11.011000 # CH4 
11 11 1 0.000000 26.095676 45.197601 16.516001 # CH4 
12 12 1 0.000000 26.095676 45.197601 22.021999 # CH4 
13 13 1 0.000000 26.095676 45.197601 0.000000 # CH4 
14 14 1 0.000000 26.095676 45.197601 5.505000 # CH4 
15 15 1 0.000000 26.095676 45.197601 11.011000 # CH4 
16 16 1 0.000000 26.095676 22.599600 16.516001 # CH4 
17 17 1 0.000000 26.095676 22.599600 22.021999 # CH4 
18 18 10 0.000000 5.331000 7.994000 21.569241 # Zn LIG
19 18 10 0.000000 18.378000 30.594000 21.569241 # Zn LIG
20 18 10 0.000000 31.426001 7.994000 21.569241 # Zn LIG
21 18 10 0.000000 44.473999 30.594000 21.569241 # Zn LIG
22 18 2 0.000000 5.724000 9.170000 18.988241 # Ca LIG
23 18 2 0.000000 18.771999 31.768999 18.988241 # Ca LIG
24 18 2 0.000000 31.819000 9.170000 18.988241 # Ca LIG
25 18 2 0.000000 44.867001 31.768999 18.988241 # Ca LIG
26 18 3 0.000000 6.104000 10.244000 18.040241 # Cb LIG
27 18 3 0.000000 19.150999 32.842999 18.040241 # Cb LIG
28 18 3 0.000000 32.199001 10.244000 18.040241 # Cb LIG
29 18 3 0.000000 45.247002 32.842999 18.040241 # Cb LIG
30 18 5 0.000000 6.937000 11.262000 18.520241 # Cd LIG
31 18 5 0.000000 19.983999 33.861000 18.520241 # Cd LIG
32 18 5 0.000000 33.032001 11.262000 18.520241 # Cd LIG
33 18 5 0.000000 46.080002 33.861000 18.520241 # Cd LIG
34 18 6 0.000000 7.258000 11.221000 19.558241 # H LIG
35 18 6 0.000000 20.306000 33.820000 19.558241 # H LIG
36 18 6 0.000000 33.353001 11.221000 19.558241 # H LIG
37 18 6 0.000000 46.401001 33.820000 19.558241 # H LIG
38 18 8 0.000000 6.191000 9.168000 20.176241 # Ob LIG
39 18 8 0.000000 19.238001 31.767000 20.176241 # Ob LIG
40 18 8 0.000000 32.285999 9.168000 20.176241 # Ob LIG
41 18 8 0.000000 45.334000 31.767000 20.176241 # Ob LIG
42 18 7 0.000000 4.915000 8.263000 18.567242 # Oa LIG
43 18 7 0.000000 17.962999 30.862000 18.567242 # Oa LIG
44 18 7 0.000000 31.010000 8.263000 18.567242 # Oa LIG
45 18 7 0.000000 44.057999 30.862000 18.567242 # Oa LIG
46 18 9 0.000000 8.191000 13.251000 18.306240 # Oc LIG
47 18 9 0.000000 21.238001 35.849998 18.306240 # Oc LIG
48 18 9 0.000000 34.285999 13.251000 18.306240 # Oc LIG
49 18 9 0.000000 47.334000 35.849998 18.306240 # Oc LIG
50 18 10 0.000000 4.258000 6.452000 19.275242 # Zn LIG
51 18 10 0.000000 17.306000 29.052000 19.275242 # Zn LIG
52 18 10 0.000000 30.353001 6.452000 19.275242 # Zn LIG
53 18 10 0.000000 43.401001 29.052000 19.275242 # Zn LIG
54 18 10 0.000000 3.459000 8.152000 23.863241 # Zn LIG
55 18 10 0.000000 16.507000 30.750999 23.863241 # Zn LIG
56 18 10 0.000000 29.554001 8.152000 23.863241 # Zn LIG
57 18 10 0.000000 42.602001 30.750999 23.863241 # Zn LIG
58 18 10 0.000000 7.717000 14.605000 19.721241 # Zn LIG
59 18 10 0.000000 20.764999 37.203999 19.721241 # Zn LIG
60 18 10 0.000000 33.812000 14.605000 19.721241 # Zn LIG
61 18 10 0.000000 46.860001 37.203999 19.721241 # Zn LIG
62 18 7 0.000000 4.698000 6.678000 23.155241 # Oa LIG
63 18 7 0.000000 17.746000 29.277000 23.155241 # Oa LIG
64 18 7 0.000000 30.794001 6.678000 23.155241 # Oa LIG
65 18 7 0.000000 43.841000 29.277000 23.155241 # Oa LIG
66 18 7 0.000000 3.434000 7.658000 20.861240 # Oa LIG
67 18 7 0.000000 16.482000 30.257000 20.861240 # Oa LIG
68 18 7 0.000000 29.530001 7.658000 20.861240 # Oa LIG
69 18 7 0.000000 42.577000 30.257000 20.861240 # Oa LIG
70 18 9 0.000000 4.857000 9.348000 22.984241 # Oc LIG
71 18 9 0.000000 17.905001 31.947001 22.984241 # Oc LIG
72 18 9 0.000000 30.952000 9.348000 22.984241 # Oc LIG
73 18 9 0.000000 44.000000 31.947001 22.984241 # Oc LIG
74 18 9 0.000000 5.667000 6.186000 20.690241 # Oc LIG
75 18 9 0.000000 18.715000 28.785000 20.690241 # Oc LIG
76 18 9 0.000000 31.763000 6.186000 20.690241 # Oc LIG
77 18 9 0.000000 44.810001 28.785000 20.690241 # Oc LIG
78 18 4 0.000000 5.670000 10.272000 23.559240 # Cc LIG
79 18 4 0.000000 18.718000 32.870998 23.559240 # Cc LIG
80 18 4 0.000000 31.764999 10.272000 23.559240 # Cc LIG
81 18 4 0.000000 44.813000 32.870998 23.559240 # Cc LIG
82 18 2 0.000000 7.324000 13.429000 22.302240 # Ca LIG
83 18 2 0.000000 20.371000 36.028000 22.302240 # Ca LIG
84 18 2 0.000000 33.418999 13.429000 22.302240 # Ca LIG
85 18 2 0.000000 46.466999 36.028000 22.302240 # Ca LIG
86 18 3 0.000000 6.944000 12.355000 23.250240 # Cb LIG
87 18 3 0.000000 19.992001 34.953999 23.250240 # Cb LIG
88 18 3 0.000000 33.039001 12.355000 23.250240 # Cb LIG
89 18 3 0.000000 46.087002 34.953999 23.250240 # Cb LIG
90 18 4 0.000000 7.378000 12.327000 17.730240 # Cc LIG
91 18 4 0.000000 20.424999 34.925999 17.730240 # Cc LIG
92 18 4 0.000000 33.473000 12.327000 17.730240 # Cc LIG
93 18 4 0.000000 46.521000 34.925999 17.730240 # Cc LIG
94 18 5 0.000000 6.111000 11.337000 22.770241 # Cd LIG
95 18 5 0.000000 19.159000 33.936001 22.770241 # Cd LIG
96 18 5 0.000000 32.206001 11.337000 22.770241 # Cd LIG
97 18 5 0.000000 45.254002 33.936001 22.770241 # Cd LIG
98 18 6 0.000000 5.790000 11.379000 21.732241 # H LIG
99 18 6 0.000000 18.837000 33.978001 21.732241 # H LIG
100 18 6 0.000000 31.885000 11.379000 21.732241 # H LIG
101 18 6 0.000000 44.932999 33.978001 21.732241 # H LIG
102 18 8 0.000000 6.857000 13.431000 21.113241 # Ob LIG
103 18 8 0.000000 19.905001 36.029999 21.113241 # Ob LIG
104 18 8 0.000000 32.952000 13.431000 21.113241 # Ob LIG
105 18 8 0.000000 46.000000 36.029999 21.113241 # Ob LIG
106 18 7 0.000000 8.133000 14.336000 22.723240 # Oa LIG
107 18 7 0.000000 21.180000 36.936001 22.723240 # Oa LIG
108 18 7 0.000000 34.228001 14.336000 22.723240 # Oa LIG
109 18 7 0.000000 47.276001 36.936001 22.723240 # Oa LIG
110 18 10 0.000000 8.790000 16.146999 22.015240 # Zn LIG
111 18 10 0.000000 21.837000 38.745998 22.015240 # Zn LIG
112 18 10 0.000000 34.884998 16.146999 22.015240 # Zn LIG
113 18 10 0.000000 47.932999 38.745998 22.015240 # Zn LIG
114 18 10 0.000000 9.589000 14.447000 17.427240 # Zn LIG
115 18 10 0.000000 22.636000 37.046001 17.427240 # Zn LIG
116 18 10 0.000000 35.683998 14.447000 17.427240 # Zn LIG
117 18 10 0.000000 48.731998 37.046001 17.427240 # Zn LIG
118 18 7 0.000000 8.349000 15.921000 18.135241 # Oa LIG
119 18 7 0.000000 21.396999 38.520000 18.135241 # Oa LIG
120 18 7 0.000000 34.445000 15.921000 18.135241 # Oa LIG
121 18 7 0.000000 47.492001 38.520000 18.135241 # Oa LIG
122 18 7 0.000000 9.613000 14.941000 20.429241 # Oa LIG
123 18 7 0.000000 22.660999 37.540001 20.429241 # Oa LIG
124 18 7 0.000000 35.709000 14.941000 20.429241 # Oa LIG
125 18 7 0.000000 48.756001 37.540001 20.429241 # Oa LIG
126 18 9 0.000000 7.380000 16.413000 20.600241 # Oc LIG
127 18 9 0.000000 20.427999 39.013000 20.600241 # Oc LIG
128 18 9 0.000000 33.476002 16.413000 20.600241 # Oc LIG
129 18 9 0.000000 46.522999 39.013000 20.600241 # Oc LIG
130 18 10 0.000000 8.790000 31.212999 19.721241 # Zn LIG
131 18 10 0.000000 21.837000 8.614000 19.721241 # Zn LIG
132 18 10 0.000000 34.884998 31.212999 19.721241 # Zn LIG
133 18 10 0.000000 47.932999 8.614000 19.721241 # Zn LIG
134 18 10 0.000000 9.589000 29.513000 22.015240 # Zn LIG
135 18 10 0.000000 22.636000 6.914000 22.015240 # Zn LIG
136 18 10 0.000000 35.683998 29.513000 22.015240 # Zn LIG
137 18 10 0.000000 48.731998 6.914000 22.015240 # Zn LIG
138 18 7 0.000000 9.613000 30.007000 18.135241 # Oa LIG
139 18 7 0.000000 22.660999 7.408000 18.135241 # Oa LIG
140 18 7 0.000000 35.709000 30.007000 18.135241 # Oa LIG
141 18 7 0.000000 48.756001 7.408000 18.135241 # Oa LIG
142 18 7 0.000000 8.349000 30.987000 22.723240 # Oa LIG
143 18 7 0.000000 21.396999 8.388000 22.723240 # Oa LIG
144 18 7 0.000000 34.445000 30.987000 22.723240 # Oa LIG
145 18 7 0.000000 47.492001 8.388000 22.723240 # Oa LIG
146 18 7 0.000000 4.698000 21.743999 20.861240 # Oa LIG
147 18 7 0.000000 17.746000 44.342999 20.861240 # Oa LIG
148 18 7 0.000000 30.794001 21.743999 20.861240 # Oa LIG
149 18 7 0.000000 43.841000 44.342999 20.861240 # Oa LIG
150 18 9 0.000000 5.667000 21.252001 18.396240 # Oc LIG
151 18 9 0.000000 18.715000 43.851002 18.396240 # Oc LIG
152 18 9 0.000000 31.763000 21.252001 18.396240 # Oc LIG
153 18 9 0.000000 44.810001 43.851002 18.396240 # Oc LIG
154 18 10 0.000000 4.258000 21.518000 23.863241 # Zn LIG
155 18 10 0.000000 17.306000 44.118000 23.863241 # Zn LIG
156 18 10 0.000000 30.353001 21.518000 23.863241 # Zn LIG
157 18 10 0.000000 43.401001 44.118000 23.863241 # Zn LIG
158 18 10 0.000000 8.790000 1.081000 17.427240 # Zn LIG
159 18 10 0.000000 21.837000 23.680000 17.427240 # Zn LIG
160 18 10 0.000000 34.884998 1.081000 17.427240 # Zn LIG
161 18 10 0.000000 47.932999 23.680000 17.427240 # Zn LIG
162 18 7 0.000000 8.349000 0.855000 20.429241 # Oa LIG
163 18 7 0.000000 21.396999 23.454000 20.429241 # Oa LIG
164 18 7 0.000000 34.445000 0.855000 20.429241 # Oa LIG
165 18 7 0.000000 47.492001 23.454000 20.429241 # Oa LIG
166 18 9 0.000000 7.380000 1.347000 22.894241 # Oc LIG
167 18 9 0.000000 20.427999 23.947001 22.894241 # Oc LIG
168 18 9 0.000000 33.476002 1.347000 22.894241 # Oc LIG
169 18 9 0.000000 46.522999 23.947001 22.894241 # Oc LIG
170 18 9 0.000000 4.857000 39.480000 18.396240 # Oc LIG
171 18 9 0.000000 17.905001 16.881001 18.396240 # Oc LIG
172 18 9 0.000000 30.952999 39.480000 18.396240 # Oc LIG
173 18 9 0.000000 44.000000 16.881001 18.396240 # Oc LIG
174 18 10 0.000000 5.331000 38.126999 23.863241 # Zn LIG
175 18 10 0.000000 18.378000 15.527000 23.863241 # Zn LIG
176 18 10 0.000000 31.426001 38.126999 23.863241 # Zn LIG
177 18 10 0.000000 44.473999 15.527000 23.863241 # Zn LIG
178 18 2 0.000000 5.724000 39.301998 21.282242 # Ca LIG
179 18 2 0.000000 18.771999 16.702999 21.282242 # Ca LIG
180 18 2 0.000000 31.819000 39.301998 21.282242 # Ca LIG
181 18 2 0.000000 44.867001 16.702999 21.282242 # Ca LIG
182 18 3 0.000000 6.104000 40.375999 20.334240 # Cb LIG
183 18 3 0.000000 19.150999 17.777000 20.334240 # Cb LIG
184 18 3 0.000000 32.199001 40.375999 20.334240 # Cb LIG
185 18 3 0.000000 45.247002 17.777000 20.334240 # Cb LIG
186 18 4 0.000000 5.670000 40.403999 18.972240 # Cc LIG
187 18 4 0.000000 18.718000 17.805000 18.972240 # Cc LIG
188 18 4 0.000000 31.764999 40.403999 18.972240 # Cc LIG
189 18 4 0.000000 44.813000 17.805000 18.972240 # Cc LIG
190 18 5 0.000000 6.937000 41.394001 20.814240 # Cd LIG
191 18 5 0.000000 19.983999 18.795000 20.814240 # Cd LIG
192 18 5 0.000000 33.032001 41.394001 20.814240 # Cd LIG
193 18 5 0.000000 46.080002 18.795000 20.814240 # Cd LIG
194 18 6 0.000000 7.258000 41.353001 21.852242 # H LIG
195 18 6 0.000000 20.306000 18.754000 21.852242 # H LIG
196 18 6 0.000000 33.353001 41.353001 21.852242 # H LIG
197 18 6 0.000000 46.401001 18.754000 21.852242 # H LIG
198 18 8 0.000000 6.191000 39.299999 22.470242 # Ob LIG
199 18 8 0.000000 19.238001 16.701000 22.470242 # Ob LIG
200 18 8 0.000000 32.285999 39.299999 22.470242 # Ob LIG
201 18 8 0.000000 45.334000 16.701000 22.470242 # Ob LIG
202 18 7 0.000000 4.915000 38.395000 20.861240 # Oa LIG
203 18 7 0.000000 17.962999 15.796000 20.861240 # Oa LIG
204 18 7 0.000000 31.010000 38.395000 20.861240 # Oa LIG
205 18 7 0.000000 44.057999 15.796000 20.861240 # Oa LIG
206 18 3 0.000000 6.944000 42.487000 18.662241 # Cb LIG
207 18 3 0.000000 19.992001 19.888000 18.662241 # Cb LIG
208 18 3 0.000000 33.039001 42.487000 18.662241 # Cb LIG
209 18 3 0.000000 46.087002 19.888000 18.662241 # Cb LIG
210 18 4 0.000000 7.378000 42.459000 20.024240 # Cc LIG
211 18 4 0.000000 20.424999 19.860001 20.024240 # Cc LIG
212 18 4 0.000000 33.473000 42.459000 20.024240 # Cc LIG
213 18 4 0.000000 46.521000 19.860001 20.024240 # Cc LIG
214 18 5 0.000000 6.111000 41.469002 18.182240 # Cd LIG
215 18 5 0.000000 19.159000 18.870001 18.182240 # Cd LIG
216 18 5 0.000000 32.206001 41.469002 18.182240 # Cd LIG
217 18 5 0.000000 45.254002 18.870001 18.182240 # Cd LIG
218 18 7 0.000000 8.133000 44.469002 18.135241 # Oa LIG
219 18 7 0.000000 21.180000 21.868999 18.135241 # Oa LIG
220 18 7 0.000000 34.228001 44.469002 18.135241 # Oa LIG
221 18 7 0.000000 47.276001 21.868999 18.135241 # Oa LIG
222 18 9 0.000000 8.191000 43.382999 20.600241 # Oc LIG
223 18 9 0.000000 21.238001 20.784000 20.600241 # Oc LIG
224 18 9 0.000000 34.285999 43.382999 20.600241 # Oc LIG
225 18 9 0.000000 47.334000 20.784000 20.600241 # Oc LIG
226 18 10 0.000000 7.717000 44.737000 22.015240 # Zn LIG
227 18 10 0.000000 20.764999 22.138000 22.015240 # Zn LIG
228 18 10 0.000000 33.812000 44.737000 22.015240 # Zn LIG
229 18 10 0.000000 46.860001 22.138000 22.015240 # Zn LIG
230 18 10 0.000000 9.589000 44.578999 19.721241 # Zn LIG
231 18 10 0.000000 22.636000 21.980000 19.721241 # Zn LIG
232 18 10 0.000000 35.683998 44.578999 19.721241 # Zn LIG
233 18 10 0.000000 48.731998 21.980000 19.721241 # Zn LIG
234 18 9 0.000000 5.667000 36.318001 22.984241 # Oc LIG
235 18 9 0.000000 18.715000 13.719000 22.984241 # Oc LIG
236 18 9 0.000000 31.763000 36.318001 22.984241 # Oc LIG
237 18 9 0.000000 44.810001 13.719000 22.984241 # Oc LIG
238 18 2 0.000000 7.324000 43.561001 17.714241 # Ca LIG
239 18 2 0.000000 20.371000 20.962000 17.714241 # Ca LIG
240 18 2 0.000000 33.418999 43.561001 17.714241 # Ca LIG
241 18 2 0.000000 46.466999 20.962000 17.714241 # Ca LIG
242 18 8 0.000000 6.857000 43.563999 23.407242 # Ob LIG
243 18 8 0.000000 19.905001 20.964001 23.407242 # Ob LIG
244 18 8 0.000000 32.952000 43.563999 23.407242 # Ob LIG
245 18 8 0.000000 46.000000 20.964001 23.407242 # Ob LIG
246 18 7 0.000000 9.613000 45.073002 22.723240 # Oa LIG
247 18 7 0.000000 22.660999 22.474001 22.723240 # Oa LIG
248 18 7 0.000000 35.709000 45.073002 22.723240 # Oa LIG
249 18 7 0.000000 48.756001 22.474001 22.723240 # Oa LIG
250 18 10 0.000000 3.459000 38.285000 19.275242 # Zn LIG
251 18 10 0.000000 16.507000 15.685000 19.275242 # Zn LIG
252 18 10 0.000000 29.554001 38.285000 19.275242 # Zn LIG
253 18 10 0.000000 42.602001 15.685000 19.275242 # Zn LIG
254 18 7 0.000000 4.698000 36.810001 18.567242 # Oa LIG
255 18 7 0.000000 17.746000 14.211000 18.567242 # Oa LIG
256 18 7 0.000000 30.794001 36.810001 18.567242 # Oa LIG
257 18 7 0.000000 43.841000 14.211000 18.567242 # Oa LIG
258 18 10 0.000000 4.258000 36.584999 21.569241 # Zn LIG
259 18 10 0.000000 17.306000 13.985000 21.569241 # Zn LIG
260 18 10 0.000000 30.353001 36.584999 21.569241 # Zn LIG
261 18 10 0.000000 43.401001 13.985000 21.569241 # Zn LIG
262 18 7 0.000000 3.434000 37.790001 23.155241 # Oa LIG
263 18 7 0.000000 16.482000 15.191000 23.155241 # Oa LIG
264 18 7 0.000000 29.530001 37.790001 23.155241 # Oa LIG
265 18 7 0.000000 42.577000 15.191000 23.155241 # Oa LIG
266 18 9 0.000000 2.523000 22.131001 22.984241 # Oc LIG
267 18 9 0.000000 15.571000 44.730999 22.984241 # Oc LIG
268 18 9 0.000000 28.618999 22.131001 22.984241 # Oc LIG
269 18 9 0.000000 41.666000 44.730999 22.984241 # Oc LIG
270 18 4 0.000000 1.317000 22.372999 23.559240 # Cc LIG
271 18 4 0.000000 14.364000 44.972000 23.559240 # Cc LIG
272 18 4 0.000000 27.412001 22.372999 23.559240 # Cc LIG
273 18 4 0.000000 40.459999 44.972000 23.559240 # Cc LIG
274 18 2 0.000000 10.803000 44.826000 22.302240 # Ca LIG
275 18 2 0.000000 23.851000 22.226999 22.302240 # Ca LIG
276 18 2 0.000000 36.898998 44.826000 22.302240 # Ca LIG
277 18 2 0.000000 49.945999 22.226999 22.302240 # Ca LIG
278 18 3 0.000000 11.923000 45.034000 23.250240 # Cb LIG
279 18 3 0.000000 24.971001 22.434999 23.250240 # Cb LIG
280 18 3 0.000000 38.019001 45.034000 23.250240 # Cb LIG
281 18 3 0.000000 51.066002 22.434999 23.250240 # Cb LIG
282 18 5 0.000000 0.174000 22.223000 22.770241 # Cd LIG
283 18 5 0.000000 13.222000 44.821999 22.770241 # Cd LIG
284 18 5 0.000000 26.268999 22.223000 22.770241 # Cd LIG
285 18 5 0.000000 39.317001 44.821999 22.770241 # Cd LIG
286 18 6 0.000000 0.299000 21.924000 21.732241 # H LIG
287 18 6 0.000000 13.346000 44.522999 21.732241 # H LIG
288 18 6 0.000000 26.393999 21.924000 21.732241 # H LIG
289 18 6 0.000000 39.442001 44.522999 21.732241 # H LIG
290 18 8 0.000000 11.035000 44.421001 21.113241 # Ob LIG
291 18 8 0.000000 24.083000 21.822001 21.113241 # Ob LIG
292 18 8 0.000000 37.130001 44.421001 21.113241 # Ob LIG
293 18 8 0.000000 50.178001 21.822001 21.113241 # Ob LIG
294 18 4 0.000000 6.061000 35.152000 23.559240 # Cc LIG
295 18 4 0.000000 19.108999 12.553000 23.559240 # Cc LIG
296 18 4 0.000000 32.155998 35.152000 23.559240 # Cc LIG
297 18 4 0.000000 45.203999 12.553000 23.559240 # Cc LIG
298 18 2 0.000000 7.968000 32.140999 22.302240 # Ca LIG
299 18 2 0.000000 21.016001 9.542000 22.302240 # Ca LIG
300 18 2 0.000000 34.063999 32.140999 22.302240 # Ca LIG
301 18 2 0.000000 47.111000 9.542000 22.302240 # Ca LIG
302 18 3 0.000000 7.228000 33.007000 23.250240 # Cb LIG
303 18 3 0.000000 20.275999 10.408000 23.250240 # Cb LIG
304 18 3 0.000000 33.323002 33.007000 23.250240 # Cb LIG
305 18 3 0.000000 46.370998 10.408000 23.250240 # Cb LIG
306 18 5 0.000000 6.763000 34.237000 22.770241 # Cd LIG
307 18 5 0.000000 19.809999 11.638000 22.770241 # Cd LIG
308 18 5 0.000000 32.858002 34.237000 22.770241 # Cd LIG
309 18 5 0.000000 45.905998 11.638000 22.770241 # Cd LIG
310 18 6 0.000000 6.959000 34.494999 21.732241 # H LIG
311 18 6 0.000000 20.007000 11.896000 21.732241 # H LIG
312 18 6 0.000000 33.055000 34.494999 21.732241 # H LIG
313 18 6 0.000000 46.102001 11.896000 21.732241 # H LIG
314 18 8 0.000000 8.203000 32.543999 21.113241 # Ob LIG
315 18 8 0.000000 21.250999 9.945000 21.113241 # Ob LIG
316 18 8 0.000000 34.299000 32.543999 21.113241 # Ob LIG
317 18 8 0.000000 47.346001 9.945000 21.113241 # Ob LIG
318 18 9 0.000000 10.524000 30.600000 20.600241 # Oc LIG
319 18 9 0.000000 23.572001 8.001000 20.600241 # Oc LIG
320 18 9 0.000000 36.619999 30.600000 20.600241 # Oc LIG
321 18 9 0.000000 49.667000 8.001000 20.600241 # Oc LIG
322 18 2 0.000000 5.079000 35.655998 18.988241 # Ca LIG
323 18 2 0.000000 18.127001 13.057000 18.988241 # Ca LIG
324 18 2 0.000000 31.174999 35.655998 18.988241 # Ca LIG
325 18 2 0.000000 44.222000 13.057000 18.988241 # Ca LIG
326 18 3 0.000000 5.820000 34.790001 18.040241 # Cb LIG
327 18 3 0.000000 18.867001 12.191000 18.040241 # Cb LIG
328 18 3 0.000000 31.915001 34.790001 18.040241 # Cb LIG
329 18 3 0.000000 44.963001 12.191000 18.040241 # Cb LIG
330 18 5 0.000000 6.285000 33.560001 18.520241 # Cd LIG
331 18 5 0.000000 19.333000 10.961000 18.520241 # Cd LIG
332 18 5 0.000000 32.380001 33.560001 18.520241 # Cd LIG
333 18 5 0.000000 45.428001 10.961000 18.520241 # Cd LIG
334 18 6 0.000000 6.088000 33.301998 19.558241 # H LIG
335 18 6 0.000000 19.136000 10.703000 19.558241 # H LIG
336 18 6 0.000000 32.183998 33.301998 19.558241 # H LIG
337 18 6 0.000000 45.230999 10.703000 19.558241 # H LIG
338 18 8 0.000000 4.844000 35.252998 20.176241 # Ob LIG
339 18 8 0.000000 17.892000 12.654000 20.176241 # Ob LIG
340 18 8 0.000000 30.940001 35.252998 20.176241 # Ob LIG
341 18 8 0.000000 43.987000 12.654000 20.176241 # Ob LIG
342 18 9 0.000000 2.523000 37.198002 20.690241 # Oc LIG
343 18 9 0.000000 15.571000 14.598000 20.690241 # Oc LIG
344 18 9 0.000000 28.618999 37.198002 20.690241 # Oc LIG
345 18 9 0.000000 41.666000 14.598000 20.690241 # Oc LIG
346 18 8 0.000000 2.013000 38.443001 17.882240 # Ob LIG
347 18 8 0.000000 15.060000 15.843000 17.882240 # Ob LIG
348 18 8 0.000000 28.108000 38.443001 17.882240 # Ob LIG
349 18 8 0.000000 41.155998 15.843000 17.882240 # Ob LIG
350 18 2 0.000000 2.244000 38.036999 23.576241 # Ca LIG
351 18 2 0.000000 15.292000 15.438000 23.576241 # Ca LIG
352 18 2 0.000000 28.340000 38.036999 23.576241 # Ca LIG
353 18 2 0.000000 41.387001 15.438000 23.576241 # Ca LIG
354 18 3 0.000000 1.124000 37.828999 22.628241 # Cb LIG
355 18 3 0.000000 14.172000 15.230000 22.628241 # Cb LIG
356 18 3 0.000000 27.219999 37.828999 22.628241 # Cb LIG
357 18 3 0.000000 40.266998 15.230000 22.628241 # Cb LIG
358 18 4 0.000000 1.317000 37.438999 21.265240 # Cc LIG
359 18 4 0.000000 14.364000 14.840000 21.265240 # Cc LIG
360 18 4 0.000000 27.412001 37.438999 21.265240 # Cc LIG
361 18 4 0.000000 40.459999 14.840000 21.265240 # Cc LIG
362 18 5 0.000000 12.874000 15.442000 23.108240 # Cd LIG
363 18 5 0.000000 25.921000 38.041000 23.108240 # Cd LIG
364 18 5 0.000000 38.969002 15.442000 23.108240 # Cd LIG
365 18 5 0.000000 52.016998 38.041000 23.108240 # Cd LIG
366 18 6 0.000000 12.749000 15.741000 17.264240 # H LIG
367 18 6 0.000000 25.797001 38.341000 17.264240 # H LIG
368 18 6 0.000000 38.844002 15.741000 17.264240 # H LIG
369 18 6 0.000000 51.891998 38.341000 17.264240 # H LIG
370 18 2 0.000000 10.803000 14.694000 20.008240 # Ca LIG
371 18 2 0.000000 23.851000 37.292999 20.008240 # Ca LIG
372 18 2 0.000000 36.898998 14.694000 20.008240 # Ca LIG
373 18 2 0.000000 49.945999 37.292999 20.008240 # Ca LIG
374 18 3 0.000000 11.923000 14.902000 20.956242 # Cb LIG
375 18 3 0.000000 24.971001 37.500999 20.956242 # Cb LIG
376 18 3 0.000000 38.019001 14.902000 20.956242 # Cb LIG
377 18 3 0.000000 51.066002 37.500999 20.956242 # Cb LIG
378 18 4 0.000000 11.731000 15.292000 22.318241 # Cc LIG
379 18 4 0.000000 24.778000 37.890999 22.318241 # Cc LIG
380 18 4 0.000000 37.826000 15.292000 22.318241 # Cc LIG
381 18 4 0.000000 50.874001 37.890999 22.318241 # Cc LIG
382 18 5 0.000000 0.174000 37.289001 20.476242 # Cd LIG
383 18 5 0.000000 13.222000 14.690000 20.476242 # Cd LIG
384 18 5 0.000000 26.268999 37.289001 20.476242 # Cd LIG
385 18 5 0.000000 39.317001 14.690000 20.476242 # Cd LIG
386 18 6 0.000000 0.299000 36.990002 19.438240 # H LIG
387 18 6 0.000000 13.346000 14.391000 19.438240 # H LIG
388 18 6 0.000000 26.393999 36.990002 19.438240 # H LIG
389 18 6 0.000000 39.442001 14.391000 19.438240 # H LIG
390 18 8 0.000000 11.035000 14.289000 18.819241 # Ob LIG
391 18 8 0.000000 24.083000 36.888000 18.819241 # Ob LIG
392 18 8 0.000000 37.130001 14.289000 18.819241 # Ob LIG
393 18 8 0.000000 50.178001 36.888000 18.819241 # Ob LIG
394 18 9 0.000000 10.524000 15.534000 22.894241 # Oc LIG
395 18 9 0.000000 23.572001 38.132999 22.894241 # Oc LIG
396 18 9 0.000000 36.619999 15.534000 22.894241 # Oc LIG
397 18 9 0.000000 49.667000 38.132999 22.894241 # Oc LIG
398 18 8 0.000000 4.844000 5.121000 17.882240 # Ob LIG
399 18 8 0.000000 17.892000 27.719999 17.882240 # Ob LIG
400 18 8 0.000000 30.940001 5.121000 17.882240 # Ob LIG
401 18 8 0.000000 43.987000 27.719999 17.882240 # Ob LIG
402 18 9 0.000000 2.523000 7.065000 18.396240 # Oc LIG
403 18 9 0.000000 15.571000 29.664000 18.396240 # Oc LIG
404 18 9 0.000000 28.618999 7.065000 18.396240 # Oc LIG
405 18 9 0.000000 41.666000 29.664000 18.396240 # Oc LIG
406 18 2 0.000000 5.079000 5.524000 23.576241 # Ca LIG
407 18 2 0.000000 18.127001 28.122999 23.576241 # Ca LIG
408 18 2 0.000000 31.174999 5.524000 23.576241 # Ca LIG
409 18 2 0.000000 44.222000 28.122999 23.576241 # Ca LIG
410 18 3 0.000000 5.820000 4.658000 22.628241 # Cb LIG
411 18 3 0.000000 18.867001 27.257000 22.628241 # Cb LIG
412 18 3 0.000000 31.915001 4.658000 22.628241 # Cb LIG
413 18 3 0.000000 44.963001 27.257000 22.628241 # Cb LIG
414 18 4 0.000000 6.061000 5.020000 21.265240 # Cc LIG
415 18 4 0.000000 19.108999 27.618999 21.265240 # Cc LIG
416 18 4 0.000000 32.155998 5.020000 21.265240 # Cc LIG
417 18 4 0.000000 45.203999 27.618999 21.265240 # Cc LIG
418 18 5 0.000000 6.285000 3.428000 23.108240 # Cd LIG
419 18 5 0.000000 19.333000 26.027000 23.108240 # Cd LIG
420 18 5 0.000000 32.380001 3.428000 23.108240 # Cd LIG
421 18 5 0.000000 45.428001 26.027000 23.108240 # Cd LIG
422 18 6 0.000000 6.088000 3.170000 17.264240 # H LIG
423 18 6 0.000000 19.136000 25.768999 17.264240 # H LIG
424 18 6 0.000000 32.183998 3.170000 17.264240 # H LIG
425 18 6 0.000000 45.230999 25.768999 17.264240 # H LIG
426 18 2 0.000000 7.968000 2.009000 20.008240 # Ca LIG
427 18 2 0.000000 21.016001 24.608000 20.008240 # Ca LIG
428 18 2 0.000000 34.063999 2.009000 20.008240 # Ca LIG
429 18 2 0.000000 47.111000 24.608000 20.008240 # Ca LIG
430 18 3 0.000000 7.228000 2.875000 20.956242 # Cb LIG
431 18 3 0.000000 20.275999 25.474001 20.956242 # Cb LIG
432 18 3 0.000000 33.323002 2.875000 20.956242 # Cb LIG
433 18 3 0.000000 46.370998 25.474001 20.956242 # Cb LIG
434 18 4 0.000000 6.987000 2.513000 22.318241 # Cc LIG
435 18 4 0.000000 20.034000 25.112000 22.318241 # Cc LIG
436 18 4 0.000000 33.082001 2.513000 22.318241 # Cc LIG
437 18 4 0.000000 46.130001 25.112000 22.318241 # Cc LIG
438 18 5 0.000000 6.763000 4.105000 20.476242 # Cd LIG
439 18 5 0.000000 19.809999 26.704000 20.476242 # Cd LIG
440 18 5 0.000000 32.858002 4.105000 20.476242 # Cd LIG
441 18 5 0.000000 45.905998 26.704000 20.476242 # Cd LIG
442 18 6 0.000000 6.959000 4.363000 19.438240 # H LIG
443 18 6 0.000000 20.007000 26.962000 19.438240 # H LIG
444 18 6 0.000000 33.055000 4.363000 19.438240 # H LIG
445 18 6 0.000000 46.102001 26.962000 19.438240 # H LIG
446 18 8 0.000000 8.203000 2.412000 18.819241 # Ob LIG
447 18 8 0.000000 21.250999 25.011000 18.819241 # Ob LIG
448 18 8 0.000000 34.299000 2.412000 18.819241 # Ob LIG
449 18 8 0.000000 47.346001 25.011000 18.819241 # Ob LIG
450 18 2 0.000000 2.244000 7.905000 21.282242 # Ca LIG
451 18 2 0.000000 15.292000 30.504000 21.282242 # Ca LIG
452 18 2 0.000000 28.340000 7.905000 21.282242 # Ca LIG
453 18 2 0.000000 41.387001 30.504000 21.282242 # Ca LIG
454 18 3 0.000000 1.124000 7.697000 20.334240 # Cb LIG
455 18 3 0.000000 14.172000 30.296000 20.334240 # Cb LIG
456 18 3 0.000000 27.219999 7.697000 20.334240 # Cb LIG
457 18 3 0.000000 40.266998 30.296000 20.334240 # Cb LIG
458 18 4 0.000000 1.317000 7.307000 18.972240 # Cc LIG
459 18 4 0.000000 14.364000 29.906000 18.972240 # Cc LIG
460 18 4 0.000000 27.412001 7.307000 18.972240 # Cc LIG
461 18 4 0.000000 40.459999 29.906000 18.972240 # Cc LIG
462 18 5 0.000000 12.874000 30.507999 20.814240 # Cd LIG
463 18 5 0.000000 25.921000 7.909000 20.814240 # Cd LIG
464 18 5 0.000000 38.969002 30.507999 20.814240 # Cd LIG
465 18 5 0.000000 52.016998 7.909000 20.814240 # Cd LIG
466 18 6 0.000000 12.749000 30.808001 21.852242 # H LIG
467 18 6 0.000000 25.797001 8.208000 21.852242 # H LIG
468 18 6 0.000000 38.844002 30.808001 21.852242 # H LIG
469 18 6 0.000000 51.891998 8.208000 21.852242 # H LIG
470 18 8 0.000000 2.013000 8.310000 22.470242 # Ob LIG
471 18 8 0.000000 15.060000 30.910000 22.470242 # Ob LIG
472 18 8 0.000000 28.108000 8.310000 22.470242 # Ob LIG
473 18 8 0.000000 41.155998 30.910000 22.470242 # Ob LIG
474 18 3 0.000000 11.923000 29.968000 18.662241 # Cb LIG
475 18 3 0.000000 24.971001 7.369000 18.662241 # Cb LIG
476 18 3 0.000000 38.019001 29.968000 18.662241 # Cb LIG
477 18 3 0.000000 51.066002 7.369000 18.662241 # Cb LIG
478 18 4 0.000000 11.731000 30.358000 20.024240 # Cc LIG
479 18 4 0.000000 24.778999 7.759000 20.024240 # Cc LIG
480 18 4 0.000000 37.826000 30.358000 20.024240 # Cc LIG
481 18 4 0.000000 50.874001 7.759000 20.024240 # Cc LIG
482 18 5 0.000000 0.174000 7.157000 18.182240 # Cd LIG
483 18 5 0.000000 13.222000 29.756001 18.182240 # Cd LIG
484 18 5 0.000000 26.268999 7.157000 18.182240 # Cd LIG
485 18 5 0.000000 39.317001 29.756001 18.182240 # Cd LIG
486 18 2 0.000000 10.803000 29.760000 17.714241 # Ca LIG
487 18 2 0.000000 23.851000 7.161000 17.714241 # Ca LIG
488 18 2 0.000000 36.898998 29.760000 17.714241 # Ca LIG
489 18 2 0.000000 49.945999 7.161000 17.714241 # Ca LIG
490 18 8 0.000000 11.035000 29.355000 23.407242 # Ob LIG
491 18 8 0.000000 24.083000 6.756000 23.407242 # Ob LIG
492 18 8 0.000000 37.130001 29.355000 23.407242 # Ob LIG
493 18 8 0.000000 50.178001 6.756000 23.407242 # Ob LIG
494 18 2 0.000000 5.079000 20.590000 21.282242 # Ca LIG
495 18 2 0.000000 18.127001 43.188999 21.282242 # Ca LIG
496 18 2 0.000000 31.174999 20.590000 21.282242 # Ca LIG
497 18 2 0.000000 44.222000 43.188999 21.282242 # Ca LIG
498 18 3 0.000000 5.820000 19.724001 20.334240 # Cb LIG
499 18 3 0.000000 18.867001 42.323002 20.334240 # Cb LIG
500 18 3 0.000000 31.915001 19.724001 20.334240 # Cb LIG
501 18 3 0.000000 44.963001 42.323002 20.334240 # Cb LIG
502 18 4 0.000000 6.061000 20.086000 18.972240 # Cc LIG
503 18 4 0.000000 19.108999 42.685001 18.972240 # Cc LIG
504 18 4 0.000000 32.155998 20.086000 18.972240 # Cc LIG
505 18 4 0.000000 45.203999 42.685001 18.972240 # Cc LIG
506 18 5 0.000000 6.285000 18.493999 20.814240 # Cd LIG
507 18 5 0.000000 19.333000 41.092999 20.814240 # Cd LIG
508 18 5 0.000000 32.380001 18.493999 20.814240 # Cd LIG
509 18 5 0.000000 45.428001 41.092999 20.814240 # Cd LIG
510 18 6 0.000000 6.088000 18.236000 21.852242 # H LIG
511 18 6 0.000000 19.136000 40.834999 21.852242 # H LIG
512 18 6 0.000000 32.183998 18.236000 21.852242 # H LIG
513 18 6 0.000000 45.230999 40.834999 21.852242 # H LIG
514 18 8 0.000000 4.844000 20.187000 22.470242 # Ob LIG
515 18 8 0.000000 17.892000 42.785999 22.470242 # Ob LIG
516 18 8 0.000000 30.940001 20.187000 22.470242 # Ob LIG
517 18 8 0.000000 43.987000 42.785999 22.470242 # Ob LIG
518 18 3 0.000000 7.228000 17.941000 18.662241 # Cb LIG
519 18 3 0.000000 20.275999 40.540001 18.662241 # Cb LIG
520 18 3 0.000000 33.323002 17.941000 18.662241 # Cb LIG
521 18 3 0.000000 46.370998 40.540001 18.662241 # Cb LIG