LAMMPS data file. CGCMM style. atom_style full generated by VMD/TopoTools v1.5 on Sun Apr 09 11:00:23 PDT 2017
 1347 atoms
 34 bonds
 0 angles
 0 dihedrals
 0 impropers
 11 atom types
 1 bond types
 0 angle types
 0 dihedral types
 0 improper types
 0.439550 26.456750  xlo xhi
 0.332838 45.395937  ylo yhi
 -0.287750 27.027729  zlo zhi

# Pair Coeffs
#
# 1  Ca
# 2  Cb
# 3  Cc
# 4  Cd
# 5  Cg
# 6  H
# 7  Ni
# 8  Oa
# 9  Ob
# 10  Oc
# 11  Og

 Masses

 1 12.011000 # Ca
 2 12.011000 # Cb
 3 12.011000 # Cc
 4 12.011000 # Cd
 5 12.011000 # Cg
 6 1.008000 # H
 7 58.693001 # Ni
 8 15.999000 # Oa
 9 15.999000 # Ob
 10 15.999000 # Oc
 11 15.999000 # Og

 Atoms

1 1 11 -0.325600 26.017300 45.062775 18.709000 # Og 
2 1 5 0.651200 26.017300 45.062775 17.549000 # Cg 
3 1 11 -0.325600 26.017300 45.062775 16.389000 # Og 
4 2 11 -0.325600 26.017300 45.062775 24.172001 # Og 
5 2 5 0.651200 26.017300 45.062775 23.012001 # Cg 
6 2 11 -0.325600 26.017300 45.062775 21.852001 # Og 
7 3 11 -0.325600 26.017300 45.062775 2.320000 # Og 
8 3 5 0.651200 26.017300 45.062775 1.160000 # Cg 
9 3 11 -0.325600 26.017300 45.062775 0.000000 # Og 
10 4 11 -0.325600 26.017300 45.062775 7.783000 # Og 
11 4 5 0.651200 26.017300 45.062775 6.623000 # Cg 
12 4 11 -0.325600 26.017300 45.062775 5.463000 # Og 
13 5 11 -0.325600 26.017300 45.062775 13.246000 # Og 
14 5 5 0.651200 26.017300 45.062775 12.086000 # Cg 
15 5 11 -0.325600 26.017300 45.062775 10.926000 # Og 
16 6 11 -0.325600 26.017300 22.531775 18.709000 # Og 
17 6 5 0.651200 26.017300 22.531775 17.549000 # Cg 
18 6 11 -0.325600 26.017300 22.531775 16.389000 # Og 
19 7 11 -0.325600 26.017300 22.531775 24.172001 # Og 
20 7 5 0.651200 26.017300 22.531775 23.012001 # Cg 
21 7 11 -0.325600 26.017300 22.531775 21.852001 # Og 
22 8 11 -0.325600 26.017300 22.531775 2.320000 # Og 
23 8 5 0.651200 26.017300 22.531775 1.160000 # Cg 
24 8 11 -0.325600 26.017300 22.531775 0.000000 # Og 
25 9 11 -0.325600 26.017300 22.531775 7.783000 # Og 
26 9 5 0.651200 26.017300 22.531775 6.623000 # Cg 
27 9 11 -0.325600 26.017300 22.531775 5.463000 # Og 
28 10 11 -0.325600 26.017300 22.531775 13.246000 # Og 
29 10 5 0.651200 26.017300 22.531775 12.086000 # Cg 
30 10 11 -0.325600 26.017300 22.531775 10.926000 # Og 
31 11 11 -0.325600 13.008301 45.062775 18.709000 # Og 
32 11 5 0.651200 13.008301 45.062775 17.549000 # Cg 
33 11 11 -0.325600 13.008301 45.062775 16.389000 # Og 
34 12 11 -0.325600 13.008301 45.062775 24.172001 # Og 
35 12 5 0.651200 13.008301 45.062775 23.012001 # Cg 
36 12 11 -0.325600 13.008301 45.062775 21.852001 # Og 
37 13 11 -0.325600 13.008301 45.062775 2.320000 # Og 
38 13 5 0.651200 13.008301 45.062775 1.160000 # Cg 
39 13 11 -0.325600 13.008301 45.062775 0.000000 # Og 
40 14 11 -0.325600 13.008301 45.062775 7.783000 # Og 
41 14 5 0.651200 13.008301 45.062775 6.623000 # Cg 
42 14 11 -0.325600 13.008301 45.062775 5.463000 # Og 
43 15 11 -0.325600 13.008301 45.062775 13.246000 # Og 
44 15 5 0.651200 13.008301 45.062775 12.086000 # Cg 
45 15 11 -0.325600 13.008301 45.062775 10.926000 # Og 
46 16 11 -0.325600 13.008301 22.531775 18.709000 # Og 
47 16 5 0.651200 13.008301 22.531775 17.549000 # Cg 
48 16 11 -0.325600 13.008301 22.531775 16.389000 # Og 
49 17 11 -0.325600 13.008301 22.531775 24.172001 # Og 
50 17 5 0.651200 13.008301 22.531775 23.012001 # Cg 
51 17 11 -0.325600 13.008301 22.531775 21.852001 # Og 
52 18 9 -0.696000 23.941000 21.823999 20.945980 # Ob LIG
53 18 9 -0.696000 10.932000 44.355999 20.945980 # Ob LIG
54 18 9 -0.696000 23.941000 6.803000 23.221979 # Ob LIG
55 18 9 -0.696000 10.932000 29.334000 23.221979 # Ob LIG
56 18 10 -0.785000 23.514999 7.995000 20.491980 # Oc LIG
57 18 10 -0.785000 10.506000 30.527000 20.491980 # Oc LIG
58 18 8 -0.789000 22.554001 7.442000 18.022980 # Oa LIG
59 18 8 -0.789000 9.546000 29.973000 18.022980 # Oa LIG
60 18 8 -0.789000 22.554001 22.462999 22.575979 # Oa LIG
61 18 8 -0.789000 9.546000 44.993999 22.575979 # Oa LIG
62 18 8 -0.789000 21.304001 8.301000 22.575979 # Oa LIG
63 18 8 -0.789000 8.295000 30.833000 22.575979 # Oa LIG
64 18 9 -0.696000 21.164000 9.821000 20.945980 # Ob LIG
65 18 9 -0.696000 8.155000 32.353001 20.945980 # Ob LIG
66 18 10 -0.785000 21.184000 20.701000 20.491980 # Oc LIG
67 18 10 -0.785000 8.176000 43.233002 20.491980 # Oc LIG
68 18 8 -0.789000 21.184999 21.809999 18.022980 # Oa LIG
69 18 8 -0.789000 8.176000 44.341000 18.022980 # Oa LIG
70 18 9 -0.696000 19.938000 20.927999 23.221979 # Ob LIG
71 18 9 -0.696000 6.930000 43.459999 23.221979 # Ob LIG
72 18 9 -0.696000 19.087999 16.624001 22.302979 # Ob LIG
73 18 9 -0.696000 6.079000 39.155998 22.302979 # Ob LIG
74 18 10 -0.785000 18.681999 13.676000 22.756979 # Oc LIG
75 18 10 -0.785000 5.673000 36.207001 22.756979 # Oc LIG
76 18 8 -0.789000 17.841000 15.743000 20.672979 # Oa LIG
77 18 8 -0.789000 4.833000 38.275002 20.672979 # Oa LIG
78 18 10 -0.785000 17.841999 16.851000 18.204979 # Oc LIG
79 18 10 -0.785000 4.833000 39.382999 18.204979 # Oc LIG
80 18 10 -0.785000 10.506000 0.485000 18.214979 # Oc LIG
81 18 10 -0.785000 23.514999 23.017000 18.214979 # Oc LIG
82 18 10 -0.785000 10.506000 15.506000 22.767979 # Oc LIG
83 18 10 -0.785000 23.514999 38.036999 22.767979 # Oc LIG
84 18 9 -0.696000 10.932000 14.313000 18.668980 # Ob LIG
85 18 9 -0.696000 23.941000 36.845001 18.668980 # Ob LIG
86 18 9 -0.696000 15.085000 0.708000 20.026979 # Ob LIG
87 18 9 -0.696000 2.076000 23.239000 20.026979 # Ob LIG
88 18 9 -0.696000 15.085000 15.729000 17.750980 # Ob LIG
89 18 9 -0.696000 2.077000 38.259998 17.750980 # Ob LIG
90 18 10 -0.785000 15.511000 14.536000 20.480980 # Oc LIG
91 18 10 -0.785000 2.503000 37.068001 20.480980 # Oc LIG
92 18 8 -0.789000 16.471001 15.090000 22.948978 # Oa LIG
93 18 8 -0.789000 3.463000 37.620998 22.948978 # Oa LIG
94 18 8 -0.789000 16.471001 0.069000 18.396980 # Oa LIG
95 18 8 -0.789000 3.463000 22.601000 18.396980 # Oa LIG
96 18 8 -0.789000 17.722000 14.230000 18.396980 # Oa LIG
97 18 8 -0.789000 4.713000 36.762001 18.396980 # Oa LIG
98 18 9 -0.696000 17.862000 12.710000 20.026979 # Ob LIG
99 18 9 -0.696000 4.853000 35.242001 20.026979 # Ob LIG
100 18 10 -0.785000 17.841000 1.831000 20.480980 # Oc LIG
101 18 10 -0.785000 4.833000 24.362000 20.480980 # Oc LIG
102 18 8 -0.789000 17.841000 0.722000 22.948978 # Oa LIG
103 18 8 -0.789000 4.833000 23.254000 22.948978 # Oa LIG
104 18 9 -0.696000 19.087000 1.603000 17.750980 # Ob LIG
105 18 9 -0.696000 6.079000 24.135000 17.750980 # Ob LIG
106 18 9 -0.696000 19.938000 5.907000 18.668980 # Ob LIG
107 18 9 -0.696000 6.930000 28.438999 18.668980 # Ob LIG
108 18 9 -0.696000 2.076000 8.218000 22.302979 # Ob LIG
109 18 9 -0.696000 15.085000 30.750000 22.302979 # Ob LIG
110 18 10 -0.785000 2.503000 7.026000 18.204979 # Oc LIG
111 18 10 -0.785000 15.511000 29.556999 18.204979 # Oc LIG
112 18 10 -0.785000 2.503000 22.047001 22.756979 # Oc LIG
113 18 10 -0.785000 15.511000 44.577999 22.756979 # Oc LIG
114 18 10 -0.785000 20.344000 8.856000 18.215981 # Oc LIG
115 18 10 -0.785000 7.336000 31.388000 18.215981 # Oc LIG
116 18 8 -0.789000 21.184999 6.789000 20.299980 # Oa LIG
117 18 8 -0.789000 8.176000 29.320000 20.299980 # Oa LIG
118 18 10 -0.785000 21.184000 5.680000 22.767979 # Oc LIG
119 18 10 -0.785000 8.176000 28.212000 22.767979 # Oc LIG
120 18 8 -0.789000 3.463000 7.579000 20.672979 # Oa LIG
121 18 8 -0.789000 16.471001 30.111000 20.672979 # Oa LIG
122 18 8 -0.789000 4.713000 6.720000 22.948978 # Oa LIG
123 18 8 -0.789000 17.722000 29.250999 22.948978 # Oa LIG
124 18 8 -0.789000 4.713000 21.740999 20.672979 # Oa LIG
125 18 8 -0.789000 17.722000 44.271999 20.672979 # Oa LIG
126 18 9 -0.696000 4.853000 5.200000 17.750980 # Ob LIG
127 18 9 -0.696000 17.862000 27.731001 17.750980 # Ob LIG
128 18 9 -0.696000 4.853000 20.221001 22.302979 # Ob LIG
129 18 9 -0.696000 17.862000 42.751999 22.302979 # Ob LIG
130 18 10 -0.785000 4.833000 9.341000 22.756979 # Oc LIG
131 18 10 -0.785000 17.841000 31.872999 22.756979 # Oc LIG
132 18 8 -0.789000 4.833000 8.232000 18.396980 # Oa LIG
133 18 8 -0.789000 17.841000 30.764000 18.396980 # Oa LIG
134 18 10 -0.785000 5.673000 6.165000 20.480980 # Oc LIG
135 18 10 -0.785000 18.681999 28.697001 20.480980 # Oc LIG
136 18 10 -0.785000 5.673000 21.186001 18.204979 # Oc LIG
137 18 10 -0.785000 18.681000 43.717999 18.204979 # Oc LIG
138 18 9 -0.696000 6.079000 9.114000 20.026979 # Ob LIG
139 18 9 -0.696000 19.087000 31.645000 20.026979 # Ob LIG
140 18 9 -0.696000 6.930000 13.418000 20.945980 # Ob LIG
141 18 9 -0.696000 19.938000 35.949001 20.945980 # Ob LIG
142 18 10 -0.785000 7.336000 1.345000 22.767979 # Oc LIG
143 18 10 -0.785000 20.344000 23.877001 22.767979 # Oc LIG
144 18 10 -0.785000 7.336000 16.365999 20.491980 # Oc LIG
145 18 10 -0.785000 20.344000 38.897999 20.491980 # Oc LIG
146 18 8 -0.789000 8.176000 14.299000 22.575979 # Oa LIG
147 18 8 -0.789000 21.184999 36.831001 22.575979 # Oa LIG
148 18 10 -0.785000 8.176000 13.190000 18.214979 # Oc LIG
149 18 10 -0.785000 21.184000 35.722000 18.214979 # Oc LIG
150 18 9 -0.696000 8.155000 2.311000 18.668980 # Ob LIG
151 18 9 -0.696000 21.164000 24.841999 18.668980 # Ob LIG
152 18 9 -0.696000 8.155000 17.332001 23.221979 # Ob LIG
153 18 9 -0.696000 21.164000 39.862999 23.221979 # Ob LIG
154 18 8 -0.789000 8.296000 0.791000 20.299980 # Oa LIG
155 18 8 -0.789000 21.304001 23.322001 20.299980 # Oa LIG
156 18 8 -0.789000 8.295000 15.812000 18.022980 # Oa LIG
157 18 8 -0.789000 21.304001 38.342999 18.022980 # Oa LIG
158 18 8 -0.789000 9.546000 14.952000 20.299980 # Oa LIG
159 18 8 -0.789000 22.554001 37.484001 20.299980 # Oa LIG
160 18 4 -0.173000 25.868000 7.878000 20.672979 # Cd LIG
161 18 4 -0.173000 12.860000 30.409000 20.672979 # Cd LIG
162 18 2 -0.349000 24.879999 7.373000 18.527981 # Cb LIG
163 18 2 -0.349000 11.871000 29.905001 18.527981 # Cb LIG
164 18 2 -0.349000 24.879999 22.393999 23.080978 # Cb LIG
165 18 2 -0.349000 11.871000 44.925999 23.080978 # Cb LIG
166 18 3 0.418000 24.708000 7.749000 19.900980 # Cc LIG
167 18 3 0.418000 11.699000 30.280001 19.900980 # Cc LIG
168 18 1 0.895000 23.745001 22.209999 22.137980 # Ca LIG
169 18 1 0.895000 10.736000 44.741001 22.137980 # Ca LIG
170 18 1 0.895000 23.745001 7.188000 17.585979 # Ca LIG
171 18 1 0.895000 10.736000 29.719999 17.585979 # Ca LIG
172 18 1 0.895000 20.927999 9.459000 22.137980 # Ca LIG
173 18 1 0.895000 7.919000 31.990999 22.137980 # Ca LIG
174 18 3 0.418000 20.374001 19.791000 19.900980 # Cc LIG
175 18 3 0.418000 7.365000 42.323002 19.900980 # Cc LIG
176 18 1 0.895000 20.370001 20.905001 17.585979 # Ca LIG
177 18 1 0.895000 7.361000 43.437000 17.585979 # Ca LIG
178 18 2 -0.349000 20.201000 10.350000 23.080978 # Cb LIG
179 18 2 -0.349000 7.192000 32.881001 23.080978 # Cb LIG
180 18 2 -0.349000 19.962999 19.830000 18.527981 # Cb LIG
181 18 2 -0.349000 6.954000 42.362000 18.527981 # Cb LIG
182 18 4 -0.173000 19.905001 18.722000 20.672979 # Cd LIG
183 18 4 -0.173000 6.897000 41.252998 20.672979 # Cd LIG
184 18 4 -0.173000 19.757000 11.578000 22.575979 # Cd LIG
185 18 4 -0.173000 6.749000 34.110001 22.575979 # Cd LIG
186 18 4 -0.173000 19.120001 18.830999 18.022980 # Cd LIG
187 18 4 -0.173000 6.112000 41.362999 18.022980 # Cd LIG
188 18 2 -0.349000 19.063000 17.723000 20.167980 # Cb LIG
189 18 2 -0.349000 6.055000 40.254002 20.167980 # Cb LIG
190 18 3 0.418000 19.065001 12.519000 23.347980 # Cc LIG
191 18 3 0.418000 6.056000 35.050999 23.347980 # Cc LIG
192 18 1 0.895000 18.656000 16.646999 21.110979 # Ca LIG
193 18 1 0.895000 5.647000 39.179001 21.110979 # Ca LIG
194 18 3 0.418000 18.652000 17.761000 18.795979 # Cc LIG
195 18 3 0.418000 5.643000 40.292999 18.795979 # Cc LIG
196 18 4 -0.173000 0.149000 7.143000 18.022980 # Cd LIG
197 18 4 -0.173000 13.157000 29.674999 18.022980 # Cd LIG
198 18 4 -0.173000 0.149000 22.164000 22.575979 # Cd LIG
199 18 4 -0.173000 13.157000 44.695999 22.575979 # Cd LIG
200 18 2 -0.349000 1.137000 7.648000 20.167980 # Cb LIG
201 18 2 -0.349000 14.146000 30.179001 20.167980 # Cb LIG
202 18 3 0.418000 1.309000 22.292999 23.347980 # Cc LIG
203 18 3 0.418000 14.318000 44.825001 23.347980 # Cc LIG
204 18 3 0.418000 1.309000 7.272000 18.795979 # Cc LIG
205 18 3 0.418000 14.318000 29.804001 18.795979 # Cc LIG
206 18 1 0.895000 10.736000 14.699000 19.861980 # Ca LIG
207 18 1 0.895000 23.745001 37.230000 19.861980 # Ca LIG
208 18 3 0.418000 11.699000 15.259000 22.176979 # Cc LIG
209 18 3 0.418000 24.708000 37.791000 22.176979 # Cc LIG
210 18 3 0.418000 11.699000 0.238000 17.624979 # Cc LIG
211 18 3 0.418000 24.708000 22.770000 17.624979 # Cc LIG
212 18 2 -0.349000 11.871000 14.884000 20.804979 # Cb LIG
213 18 2 -0.349000 24.879999 37.415001 20.804979 # Cb LIG
214 18 4 -0.173000 12.860000 0.367000 18.396980 # Cd LIG
215 18 4 -0.173000 25.868999 22.899000 18.396980 # Cd LIG
216 18 4 -0.173000 12.860000 15.388000 22.949980 # Cd LIG
217 18 4 -0.173000 25.868000 37.919998 22.949980 # Cd LIG
218 18 4 -0.173000 13.157000 14.654000 20.299980 # Cd LIG
219 18 4 -0.173000 0.149000 37.185001 20.299980 # Cd LIG
220 18 2 -0.349000 14.146000 15.158000 22.443979 # Cb LIG
221 18 2 -0.349000 1.137000 37.689999 22.443979 # Cb LIG
222 18 2 -0.349000 14.146000 0.137000 17.891979 # Cb LIG
223 18 2 -0.349000 1.137000 22.669001 17.891979 # Cb LIG
224 18 3 0.418000 14.318000 14.783000 21.071980 # Cc LIG
225 18 3 0.418000 1.309000 37.313999 21.071980 # Cc LIG
226 18 1 0.895000 15.281000 0.322000 18.834980 # Ca LIG
227 18 1 0.895000 2.272000 22.854000 18.834980 # Ca LIG
228 18 1 0.895000 15.281000 15.343000 23.386980 # Ca LIG
229 18 1 0.895000 2.272000 37.875000 23.386980 # Ca LIG
230 18 1 0.895000 18.098000 13.072000 18.833981 # Ca LIG
231 18 1 0.895000 5.089000 35.604000 18.833981 # Ca LIG
232 18 3 0.418000 18.652000 2.740000 21.071980 # Cc LIG
233 18 3 0.418000 5.643000 25.271999 21.071980 # Cc LIG
234 18 1 0.895000 18.656000 1.626000 23.386980 # Ca LIG
235 18 1 0.895000 5.647000 24.158001 23.386980 # Ca LIG
236 18 2 -0.349000 18.825001 12.182000 17.891979 # Cb LIG
237 18 2 -0.349000 5.816000 34.714001 17.891979 # Cb LIG
238 18 2 -0.349000 19.063000 2.701000 22.443979 # Cb LIG
239 18 2 -0.349000 6.055000 25.233000 22.443979 # Cb LIG
240 18 4 -0.173000 19.120001 3.810000 20.299980 # Cd LIG
241 18 4 -0.173000 6.111000 26.341999 20.299980 # Cd LIG
242 18 4 -0.173000 19.268999 10.953000 18.396980 # Cd LIG
243 18 4 -0.173000 6.260000 33.485001 18.396980 # Cd LIG
244 18 4 -0.173000 19.906000 3.700000 22.948978 # Cd LIG
245 18 4 -0.173000 6.897000 26.232000 22.948978 # Cd LIG
246 18 1 0.895000 2.272000 7.833000 21.110979 # Ca LIG
247 18 1 0.895000 15.281000 30.364000 21.110979 # Ca LIG
248 18 2 -0.349000 19.962000 4.809000 20.804979 # Cb LIG
249 18 2 -0.349000 6.954000 27.341000 20.804979 # Cb LIG
250 18 3 0.418000 19.961000 10.013000 17.624979 # Cc LIG
251 18 3 0.418000 6.953000 32.543999 17.624979 # Cc LIG
252 18 1 0.895000 20.370001 5.884000 19.861980 # Ca LIG
253 18 1 0.895000 7.361000 28.416000 19.861980 # Ca LIG
254 18 3 0.418000 20.374001 4.770000 22.176979 # Cc LIG
255 18 3 0.418000 7.366000 27.302000 22.176979 # Cc LIG
256 18 1 0.895000 5.089000 5.562000 23.386980 # Ca LIG
257 18 1 0.895000 18.098000 28.093000 23.386980 # Ca LIG
258 18 1 0.895000 5.089000 20.583000 21.110979 # Ca LIG
259 18 1 0.895000 18.098000 43.115002 21.110979 # Ca LIG
260 18 3 0.418000 5.643000 10.251000 23.347980 # Cc LIG
261 18 3 0.418000 18.652000 32.783001 23.347980 # Cc LIG
262 18 1 0.895000 5.647000 9.137000 18.834980 # Ca LIG
263 18 1 0.895000 18.656000 31.667999 18.834980 # Ca LIG
264 18 2 -0.349000 5.816000 4.671000 22.443979 # Cb LIG
265 18 2 -0.349000 18.825001 27.202999 22.443979 # Cb LIG
266 18 2 -0.349000 5.817000 19.693001 20.167980 # Cb LIG
267 18 2 -0.349000 18.825001 42.223999 20.167980 # Cb LIG
268 18 3 0.418000 6.056000 5.008000 21.071980 # Cc LIG
269 18 3 0.418000 19.065001 27.540001 21.071980 # Cc LIG
270 18 3 0.418000 6.056000 20.028999 18.795979 # Cc LIG
271 18 3 0.418000 19.063999 42.561001 18.795979 # Cc LIG
272 18 2 -0.349000 6.055000 10.212000 17.891979 # Cb LIG
273 18 2 -0.349000 19.063000 32.743000 17.891979 # Cb LIG
274 18 4 -0.173000 6.111000 11.321000 22.575979 # Cd LIG
275 18 4 -0.173000 19.120001 33.852001 22.575979 # Cd LIG
276 18 4 -0.173000 6.260000 3.443000 22.948978 # Cd LIG
277 18 4 -0.173000 19.268999 25.974001 22.948978 # Cd LIG
278 18 4 -0.173000 6.261000 18.464001 20.672979 # Cd LIG
279 18 4 -0.173000 19.268999 40.994999 20.672979 # Cd LIG
280 18 4 -0.173000 6.748000 4.068000 20.299980 # Cd LIG
281 18 4 -0.173000 19.757000 26.599001 20.299980 # Cd LIG
282 18 4 -0.173000 6.748000 19.089001 18.022980 # Cd LIG
283 18 4 -0.173000 19.757000 41.619999 18.022980 # Cd LIG
284 18 4 -0.173000 6.897000 11.211000 18.396980 # Cd LIG
285 18 4 -0.173000 19.906000 33.742001 18.396980 # Cd LIG
286 18 2 -0.349000 6.954000 12.320000 23.080978 # Cb LIG
287 18 2 -0.349000 19.962000 34.851002 23.080978 # Cb LIG
288 18 3 0.418000 6.953000 2.502000 22.176979 # Cc LIG
289 18 3 0.418000 19.961000 25.034000 22.176979 # Cc LIG
290 18 3 0.418000 6.953000 17.523001 19.900980 # Cc LIG
291 18 3 0.418000 19.961000 40.055000 19.900980 # Cc LIG
292 18 2 -0.349000 7.192000 2.839000 20.804979 # Cb LIG
293 18 2 -0.349000 20.201000 25.371000 20.804979 # Cb LIG
294 18 2 -0.349000 7.192000 17.860001 18.527981 # Cb LIG
295 18 2 -0.349000 20.201000 40.390999 18.527981 # Cb LIG
296 18 1 0.895000 7.361000 13.395000 22.137980 # Ca LIG
297 18 1 0.895000 20.370001 35.925999 22.137980 # Ca LIG
298 18 3 0.418000 7.366000 12.281000 17.624979 # Cc LIG
299 18 3 0.418000 20.374001 34.812000 17.624979 # Cc LIG
300 18 1 0.895000 7.919000 1.949000 19.861980 # Ca LIG
301 18 1 0.895000 20.927999 24.480000 19.861980 # Ca LIG
302 18 1 0.895000 7.919000 16.969999 17.585979 # Ca LIG
303 18 1 0.895000 20.927999 39.500999 17.585979 # Ca LIG
304 18 6 0.181000 25.764999 8.173000 21.715981 # H LIG
305 18 6 0.181000 12.756000 30.704000 21.715981 # H LIG
306 18 6 0.181000 20.212999 18.664000 21.715981 # H LIG
307 18 6 0.181000 7.204000 41.195999 21.715981 # H LIG
308 18 6 0.181000 19.961000 11.816000 21.532980 # H LIG
309 18 6 0.181000 6.952000 34.347000 21.532980 # H LIG
310 18 6 0.181000 18.813000 18.889000 23.808979 # H LIG
311 18 6 0.181000 5.805000 41.419998 23.808979 # H LIG
312 18 6 0.181000 0.252000 6.849000 23.808979 # H LIG
313 18 6 0.181000 13.261000 29.379999 23.808979 # H LIG
314 18 6 0.181000 0.252000 21.870001 21.532980 # H LIG
315 18 6 0.181000 13.261000 44.401001 21.532980 # H LIG
316 18 6 0.181000 12.756000 0.662000 19.439980 # H LIG
317 18 6 0.181000 25.764999 23.194000 19.439980 # H LIG
318 18 6 0.181000 12.756000 15.683000 17.163979 # H LIG
319 18 6 0.181000 25.764999 38.215000 17.163979 # H LIG
320 18 6 0.181000 13.261000 14.359000 19.255980 # H LIG
321 18 6 0.181000 0.252000 36.890999 19.255980 # H LIG
322 18 6 0.181000 18.813000 3.868000 19.256979 # H LIG
323 18 6 0.181000 5.804000 26.399000 19.256979 # H LIG
324 18 6 0.181000 19.065001 10.716000 19.439980 # H LIG
325 18 6 0.181000 6.057000 33.248001 19.439980 # H LIG
326 18 6 0.181000 20.212999 3.643000 17.163979 # H LIG
327 18 6 0.181000 7.204000 26.174000 17.163979 # H LIG
328 18 6 0.181000 5.804000 11.378000 21.532980 # H LIG
329 18 6 0.181000 18.813000 33.910000 21.532980 # H LIG
330 18 6 0.181000 6.057000 3.205000 17.163979 # H LIG
331 18 6 0.181000 19.065001 25.737000 17.163979 # H LIG
332 18 6 0.181000 6.057000 18.226999 21.715981 # H LIG
333 18 6 0.181000 19.066000 40.757999 21.715981 # H LIG
334 18 6 0.181000 6.952000 4.305000 19.256979 # H LIG
335 18 6 0.181000 19.959999 26.837000 19.256979 # H LIG
336 18 6 0.181000 6.951000 19.326000 23.808979 # H LIG
337 18 6 0.181000 19.959999 41.856998 23.808979 # H LIG
338 18 6 0.181000 7.204000 11.153000 19.439980 # H LIG
339 18 6 0.181000 20.212999 33.685001 19.439980 # H LIG
340 18 7 1.298000 22.488001 21.886000 19.548981 # Ni LIG
341 18 7 1.298000 9.479000 44.417999 19.548981 # Ni LIG
342 18 7 1.298000 20.719000 22.156000 21.825979 # Ni LIG
343 18 7 1.298000 7.710000 44.687000 21.825979 # Ni LIG
344 18 7 1.298000 8.828000 1.021000 17.272980 # Ni LIG
345 18 7 1.298000 21.837000 23.552999 17.272980 # Ni LIG
346 18 7 1.298000 16.538000 0.645000 21.423981 # Ni LIG
347 18 7 1.298000 3.529000 23.177000 21.423981 # Ni LIG
348 18 7 1.298000 18.306999 0.376000 19.147980 # Ni LIG
349 18 7 1.298000 5.299000 22.908001 19.147980 # Ni LIG
350 18 7 1.298000 4.181000 21.510000 23.699980 # Ni LIG
351 18 7 1.298000 17.188999 44.042000 23.699980 # Ni LIG
352 18 7 1.298000 22.488001 6.865000 21.824980 # Ni LIG
353 18 7 1.298000 9.479000 29.396999 21.824980 # Ni LIG
354 18 7 1.298000 21.837000 8.532000 19.548981 # Ni LIG
355 18 7 1.298000 8.828000 31.063000 19.548981 # Ni LIG
356 18 7 1.298000 20.718000 7.135000 17.272980 # Ni LIG
357 18 7 1.298000 7.710000 29.666000 17.272980 # Ni LIG
358 18 7 1.298000 3.529000 8.156000 23.699980 # Ni LIG
359 18 7 1.298000 16.538000 30.688000 23.699980 # Ni LIG
360 18 7 1.298000 4.180000 6.489000 19.147980 # Ni LIG
361 18 7 1.298000 17.188999 29.021000 19.147980 # Ni LIG
362 18 7 1.298000 5.299000 7.886000 21.423981 # Ni LIG
363 18 7 1.298000 18.306999 30.417999 21.423981 # Ni LIG
364 18 7 1.298000 7.710000 14.645000 19.548981 # Ni LIG
365 18 7 1.298000 20.719000 37.176998 19.548981 # Ni LIG
366 18 7 1.298000 8.828000 16.042000 21.824980 # Ni LIG
367 18 7 1.298000 21.837000 38.574001 21.824980 # Ni LIG
368 18 7 1.298000 9.479000 14.375000 17.272980 # Ni LIG
369 18 7 1.298000 22.488001 36.907001 17.272980 # Ni LIG
370 18 7 1.298000 18.306999 15.397000 23.699980 # Ni LIG
371 18 7 1.298000 5.299000 37.929001 23.699980 # Ni LIG
372 18 7 1.298000 16.538000 15.666000 19.146980 # Ni LIG
373 18 7 1.298000 3.529000 38.198002 19.146980 # Ni LIG
374 18 7 1.298000 17.188999 14.000000 21.423981 # Ni LIG
375 18 7 1.298000 4.180000 36.530998 21.423981 # Ni LIG
376 18 9 -0.696000 23.941000 21.823999 0.459500 # Ob LIG
377 18 9 -0.696000 10.932000 44.355999 0.459500 # Ob LIG
378 18 9 -0.696000 23.941000 6.803000 2.735500 # Ob LIG
379 18 9 -0.696000 10.932000 29.334000 2.735500 # Ob LIG
380 18 10 -0.785000 23.514999 7.995000 0.005500 # Oc LIG
381 18 10 -0.785000 10.506000 30.527000 0.005500 # Oc LIG
382 18 8 -0.789000 22.554001 7.442000 24.851978 # Oa LIG
383 18 8 -0.789000 9.546000 29.973000 24.851978 # Oa LIG
384 18 8 -0.789000 22.554001 22.462999 2.089500 # Oa LIG
385 18 8 -0.789000 9.546000 44.993999 2.089500 # Oa LIG
386 18 8 -0.789000 21.304001 8.301000 2.089500 # Oa LIG
387 18 8 -0.789000 8.295000 30.833000 2.089500 # Oa LIG
388 18 9 -0.696000 21.164000 9.821000 0.459500 # Ob LIG
389 18 9 -0.696000 8.155000 32.353001 0.459500 # Ob LIG
390 18 10 -0.785000 21.184000 20.701000 0.005500 # Oc LIG
391 18 10 -0.785000 8.176000 43.233002 0.005500 # Oc LIG
392 18 8 -0.789000 21.184999 21.809999 24.851978 # Oa LIG
393 18 8 -0.789000 8.176000 44.341000 24.851978 # Oa LIG
394 18 9 -0.696000 19.938000 20.927999 2.735500 # Ob LIG
395 18 9 -0.696000 6.930000 43.459999 2.735500 # Ob LIG
396 18 9 -0.696000 19.087999 16.624001 1.816500 # Ob LIG
397 18 9 -0.696000 6.079000 39.155998 1.816500 # Ob LIG
398 18 10 -0.785000 18.681999 13.676000 2.270500 # Oc LIG
399 18 10 -0.785000 5.673000 36.207001 2.270500 # Oc LIG
400 18 8 -0.789000 17.841000 15.743000 0.186500 # Oa LIG
401 18 8 -0.789000 4.833000 38.275002 0.186500 # Oa LIG
402 18 10 -0.785000 17.841999 16.851000 25.033979 # Oc LIG
403 18 10 -0.785000 4.833000 39.382999 25.033979 # Oc LIG
404 18 10 -0.785000 10.506000 0.485000 25.043980 # Oc LIG
405 18 10 -0.785000 23.514999 23.017000 25.043980 # Oc LIG
406 18 10 -0.785000 10.506000 15.506000 2.281500 # Oc LIG
407 18 10 -0.785000 23.514999 38.036999 2.281500 # Oc LIG
408 18 9 -0.696000 10.932000 14.313000 25.497980 # Ob LIG
409 18 9 -0.696000 23.941000 36.845001 25.497980 # Ob LIG
410 18 9 -0.696000 15.085000 0.708000 26.855980 # Ob LIG
411 18 9 -0.696000 2.076000 23.239000 26.855980 # Ob LIG
412 18 9 -0.696000 15.085000 15.729000 24.579979 # Ob LIG
413 18 9 -0.696000 2.077000 38.259998 24.579979 # Ob LIG
414 18 10 -0.785000 15.511000 14.536000 27.309978 # Oc LIG
415 18 10 -0.785000 2.503000 37.068001 27.309978 # Oc LIG
416 18 8 -0.789000 16.471001 15.090000 2.462500 # Oa LIG
417 18 8 -0.789000 3.463000 37.620998 2.462500 # Oa LIG
418 18 8 -0.789000 16.471001 0.069000 25.225979 # Oa LIG
419 18 8 -0.789000 3.463000 22.601000 25.225979 # Oa LIG
420 18 8 -0.789000 17.722000 14.230000 25.225979 # Oa LIG
421 18 8 -0.789000 4.713000 36.762001 25.225979 # Oa LIG
422 18 9 -0.696000 17.862000 12.710000 26.855980 # Ob LIG
423 18 9 -0.696000 4.853000 35.242001 26.855980 # Ob LIG
424 18 10 -0.785000 17.841000 1.831000 27.309978 # Oc LIG
425 18 10 -0.785000 4.833000 24.362000 27.309978 # Oc LIG
426 18 8 -0.789000 17.841000 0.722000 2.462500 # Oa LIG
427 18 8 -0.789000 4.833000 23.254000 2.462500 # Oa LIG
428 18 9 -0.696000 19.087000 1.603000 24.579979 # Ob LIG
429 18 9 -0.696000 6.079000 24.135000 24.579979 # Ob LIG
430 18 9 -0.696000 19.938000 5.907000 25.497980 # Ob LIG
431 18 9 -0.696000 6.930000 28.438999 25.497980 # Ob LIG
432 18 9 -0.696000 2.076000 8.218000 1.816500 # Ob LIG
433 18 9 -0.696000 15.085000 30.750000 1.816500 # Ob LIG
434 18 10 -0.785000 2.503000 7.026000 25.033979 # Oc LIG
435 18 10 -0.785000 15.511000 29.556999 25.033979 # Oc LIG
436 18 10 -0.785000 2.503000 22.047001 2.270500 # Oc LIG
437 18 10 -0.785000 15.511000 44.577999 2.270500 # Oc LIG
438 18 10 -0.785000 20.344000 8.856000 25.044979 # Oc LIG
439 18 10 -0.785000 7.336000 31.388000 25.044979 # Oc LIG
440 18 8 -0.789000 21.184999 6.789000 27.128979 # Oa LIG
441 18 8 -0.789000 8.176000 29.320000 27.128979 # Oa LIG
442 18 10 -0.785000 21.184000 5.680000 2.281500 # Oc LIG
443 18 10 -0.785000 8.176000 28.212000 2.281500 # Oc LIG
444 18 8 -0.789000 3.463000 7.579000 0.186500 # Oa LIG
445 18 8 -0.789000 16.471001 30.111000 0.186500 # Oa LIG
446 18 8 -0.789000 4.713000 6.720000 2.462500 # Oa LIG
447 18 8 -0.789000 17.722000 29.250999 2.462500 # Oa LIG
448 18 8 -0.789000 4.713000 21.740999 0.186500 # Oa LIG
449 18 8 -0.789000 17.722000 44.271999 0.186500 # Oa LIG
450 18 9 -0.696000 4.853000 5.200000 24.579979 # Ob LIG
451 18 9 -0.696000 17.862000 27.731001 24.579979 # Ob LIG
452 18 9 -0.696000 4.853000 20.221001 1.816500 # Ob LIG
453 18 9 -0.696000 17.862000 42.751999 1.816500 # Ob LIG
454 18 10 -0.785000 4.833000 9.341000 2.270500 # Oc LIG
455 18 10 -0.785000 17.841000 31.872999 2.270500 # Oc LIG
456 18 8 -0.789000 4.833000 8.232000 25.225979 # Oa LIG
457 18 8 -0.789000 17.841000 30.764000 25.225979 # Oa LIG
458 18 10 -0.785000 5.673000 6.165000 27.309978 # Oc LIG
459 18 10 -0.785000 18.681999 28.697001 27.309978 # Oc LIG
460 18 10 -0.785000 5.673000 21.186001 25.033979 # Oc LIG
461 18 10 -0.785000 18.681000 43.717999 25.033979 # Oc LIG
462 18 9 -0.696000 6.079000 9.114000 26.855980 # Ob LIG
463 18 9 -0.696000 19.087000 31.645000 26.855980 # Ob LIG
464 18 9 -0.696000 6.930000 13.418000 0.459500 # Ob LIG
465 18 9 -0.696000 19.938000 35.949001 0.459500 # Ob LIG
466 18 10 -0.785000 7.336000 1.345000 2.281500 # Oc LIG
467 18 10 -0.785000 20.344000 23.877001 2.281500 # Oc LIG
468 18 10 -0.785000 7.336000 16.365999 0.005500 # Oc LIG
469 18 10 -0.785000 20.344000 38.897999 0.005500 # Oc LIG
470 18 8 -0.789000 8.176000 14.299000 2.089500 # Oa LIG
471 18 8 -0.789000 21.184999 36.831001 2.089500 # Oa LIG
472 18 10 -0.785000 8.176000 13.190000 25.043980 # Oc LIG
473 18 10 -0.785000 21.184000 35.722000 25.043980 # Oc LIG
474 18 9 -0.696000 8.155000 2.311000 25.497980 # Ob LIG
475 18 9 -0.696000 21.164000 24.841999 25.497980 # Ob LIG
476 18 9 -0.696000 8.155000 17.332001 2.735500 # Ob LIG
477 18 9 -0.696000 21.164000 39.862999 2.735500 # Ob LIG
478 18 8 -0.789000 8.296000 0.791000 27.128979 # Oa LIG
479 18 8 -0.789000 21.304001 23.322001 27.128979 # Oa LIG
480 18 8 -0.789000 8.295000 15.812000 24.851978 # Oa LIG
481 18 8 -0.789000 21.304001 38.342999 24.851978 # Oa LIG
482 18 8 -0.789000 9.546000 14.952000 27.128979 # Oa LIG
483 18 8 -0.789000 22.554001 37.484001 27.128979 # Oa LIG
484 18 4 -0.173000 25.868000 7.878000 0.186500 # Cd LIG
485 18 4 -0.173000 12.860000 30.409000 0.186500 # Cd LIG
486 18 2 -0.349000 24.879999 7.373000 25.356979 # Cb LIG
487 18 2 -0.349000 11.871000 29.905001 25.356979 # Cb LIG
488 18 2 -0.349000 24.879999 22.393999 2.594500 # Cb LIG
489 18 2 -0.349000 11.871000 44.925999 2.594500 # Cb LIG
490 18 3 0.418000 24.708000 7.749000 26.729979 # Cc LIG
491 18 3 0.418000 11.699000 30.280001 26.729979 # Cc LIG
492 18 1 0.895000 23.745001 22.209999 1.651500 # Ca LIG
493 18 1 0.895000 10.736000 44.741001 1.651500 # Ca LIG
494 18 1 0.895000 23.745001 7.188000 24.414980 # Ca LIG
495 18 1 0.895000 10.736000 29.719999 24.414980 # Ca LIG
496 18 1 0.895000 20.927999 9.459000 1.651500 # Ca LIG
497 18 1 0.895000 7.919000 31.990999 1.651500 # Ca LIG
498 18 3 0.418000 20.374001 19.791000 26.729979 # Cc LIG
499 18 3 0.418000 7.365000 42.323002 26.729979 # Cc LIG
500 18 1 0.895000 20.370001 20.905001 24.414980 # Ca LIG
501 18 1 0.895000 7.361000 43.437000 24.414980 # Ca LIG
502 18 2 -0.349000 20.201000 10.350000 2.594500 # Cb LIG
503 18 2 -0.349000 7.192000 32.881001 2.594500 # Cb LIG
504 18 2 -0.349000 19.962999 19.830000 25.356979 # Cb LIG
505 18 2 -0.349000 6.954000 42.362000 25.356979 # Cb LIG
506 18 4 -0.173000 19.905001 18.722000 0.186500 # Cd LIG
507 18 4 -0.173000 6.897000 41.252998 0.186500 # Cd LIG
508 18 4 -0.173000 19.757000 11.578000 2.089500 # Cd LIG
509 18 4 -0.173000 6.749000 34.110001 2.089500 # Cd LIG
510 18 4 -0.173000 19.120001 18.830999 24.851978 # Cd LIG
511 18 4 -0.173000 6.112000 41.362999 24.851978 # Cd LIG
512 18 2 -0.349000 19.063000 17.723000 26.996979 # Cb LIG
513 18 2 -0.349000 6.055000 40.254002 26.996979 # Cb LIG
514 18 3 0.418000 19.065001 12.519000 2.861500 # Cc LIG
515 18 3 0.418000 6.056000 35.050999 2.861500 # Cc LIG
516 18 1 0.895000 18.656000 16.646999 0.624500 # Ca LIG
517 18 1 0.895000 5.647000 39.179001 0.624500 # Ca LIG
518 18 3 0.418000 18.652000 17.761000 25.624979 # Cc LIG
519 18 3 0.418000 5.643000 40.292999 25.624979 # Cc LIG