LAMMPS data file. CGCMM style. atom_style full generated by VMD/TopoTools v1.5 on Tue Jun 13 18:11:26 PDT 2017
 1374 atoms
 20 bonds
 0 angles
 0 dihedrals
 0 impropers
 11 atom types
 1 bond types
 0 angle types
 0 dihedral types
 0 improper types
 -0.273399 43.604599  xlo xhi
 -2.150352 41.709649  ylo yhi
 -0.004506 27.667495  zlo zhi

# Pair Coeffs
#
# 1  Ca
# 2  Cb
# 3  Cc
# 4  Cd
# 5  Cg
# 6  H
# 7  Oa
# 8  Ob
# 9  Oc
# 10  Og
# 11  Zn

 Masses

 1 12.011000 # Ca
 2 12.011000 # Cb
 3 12.011000 # Cc
 4 12.011000 # Cd
 5 12.011000 # Cg
 6 1.008000 # H
 7 15.999000 # Oa
 8 15.999000 # Ob
 9 15.999000 # Oc
 10 15.999000 # Og
 11 65.379997 # Zn

 Atoms

1 1 10 -0.325600 19.198116 29.219545 2.320000 # Og 
2 1 5 0.651200 19.198116 29.219545 1.160000 # Cg 
3 1 10 -0.325600 19.198116 29.219545 0.000000 # Og 
4 2 10 -0.325600 13.714120 38.714546 2.320000 # Og 
5 2 5 0.651200 13.714120 38.714546 1.160000 # Cg 
6 2 10 -0.325600 13.714120 38.714546 0.000000 # Og 
7 3 10 -0.325600 30.166748 10.230500 2.320000 # Og 
8 3 5 0.651200 30.166748 10.230500 1.160000 # Cg 
9 3 10 -0.325600 30.166748 10.230500 0.000000 # Og 
10 4 10 -0.325600 24.682747 19.725500 2.320000 # Og 
11 4 5 0.651200 24.682747 19.725500 1.160000 # Cg 
12 4 10 -0.325600 24.682747 19.725500 0.000000 # Og 
13 5 10 -0.325600 30.167118 29.219545 2.320000 # Og 
14 5 5 0.651200 30.167118 29.219545 1.160000 # Cg 
15 5 10 -0.325600 30.167118 29.219545 0.000000 # Og 
16 6 10 -0.325600 24.683117 38.714546 2.320000 # Og 
17 6 5 0.651200 24.683117 38.714546 1.160000 # Cg 
18 6 10 -0.325600 24.683117 38.714546 0.000000 # Og 
19 7 10 -0.325600 41.135746 10.230500 2.320000 # Og 
20 7 5 0.651200 41.135746 10.230500 1.160000 # Cg 
21 7 10 -0.325600 41.135746 10.230500 0.000000 # Og 
22 8 10 -0.325600 35.651749 19.725500 2.320000 # Og 
23 8 5 0.651200 35.651749 19.725500 1.160000 # Cg 
24 8 10 -0.325600 35.651749 19.725500 0.000000 # Og 
25 9 10 -0.325600 41.137115 29.219545 2.320000 # Og 
26 9 5 0.651200 41.137115 29.219545 1.160000 # Cg 
27 9 10 -0.325600 41.137115 29.219545 0.000000 # Og 
28 10 10 -0.325600 35.653118 38.714546 2.320000 # Og 
29 10 5 0.651200 35.653118 38.714546 1.160000 # Cg 
30 10 10 -0.325600 35.653118 38.714546 0.000000 # Og 
31 11 6 0.135033 23.448046 37.187798 22.706993 # H LIG
32 11 6 0.135033 28.604046 30.801798 18.227993 # H LIG
33 11 6 0.135033 28.573046 28.516796 24.187994 # H LIG
34 11 6 0.135033 27.350044 30.148796 20.394993 # H LIG
35 11 6 0.135033 10.320678 0.993752 21.862993 # H LIG
36 11 6 0.135033 30.278046 37.855797 22.827993 # H LIG
37 11 6 0.135033 31.503044 37.031796 18.095993 # H LIG
38 11 6 0.135033 21.384045 36.868797 19.553993 # H LIG
39 11 6 0.135033 23.348045 35.716797 20.517994 # H LIG
40 11 6 0.135033 42.463676 0.894752 18.798992 # H LIG
41 11 6 0.135033 32.356674 1.053751 17.341993 # H LIG
42 11 6 0.135033 34.319675 2.201752 23.292994 # H LIG
43 11 6 0.135033 39.607674 9.415751 19.656994 # H LIG
44 11 6 0.135033 34.423676 0.733752 21.105993 # H LIG
45 11 6 0.135033 39.634674 7.140751 18.688993 # H LIG
46 11 6 0.135033 41.242676 0.068752 20.984993 # H LIG
47 11 6 0.135033 21.285046 36.923798 21.950993 # H LIG
48 11 6 0.135033 38.287674 7.780753 23.415993 # H LIG
49 11 11 0.918944 26.900045 33.849796 18.427994 # Zn LIG
50 11 11 0.918944 28.516045 34.811798 23.038994 # Zn LIG
51 11 11 0.918944 26.871044 35.727798 20.734993 # Zn LIG
52 11 11 0.918944 37.841675 2.202752 23.075993 # Zn LIG
53 11 11 0.918944 37.867676 4.088752 18.466993 # Zn LIG
54 11 11 0.918944 39.484676 3.123752 20.770992 # Zn LIG
55 11 3 0.616091 28.017044 31.777798 23.325993 # Cc LIG
56 11 2 -0.169815 24.508045 36.195797 17.344994 # Cb LIG
57 11 4 -0.190923 23.390045 36.861797 23.745995 # Cd LIG
58 11 2 -0.169815 22.251045 37.131798 17.586994 # Cb LIG
59 11 4 -0.190923 28.298046 29.365797 23.557993 # Cd LIG
60 11 4 -0.190923 28.324045 30.639797 24.102993 # Cd LIG
61 11 1 1.051130 25.629045 35.936798 23.325993 # Ca LIG
62 11 3 0.616091 29.743046 36.819798 21.020992 # Cc LIG
63 11 2 -0.169815 27.674046 31.565798 21.954994 # Cb LIG
64 11 4 -0.190923 27.647045 30.259796 21.438993 # Cd LIG
65 11 2 -0.169815 27.964046 29.140797 22.205994 # Cb LIG
66 11 4 -0.190923 9.735677 0.312752 21.241993 # Cd LIG
67 11 4 -0.190923 30.563046 37.675797 21.788994 # Cd LIG
68 11 1 1.051130 27.344046 32.663795 21.015993 # Ca LIG
69 11 3 0.616091 24.514046 35.779797 18.712994 # Cc LIG
70 11 2 -0.169815 30.105045 36.617798 19.652992 # Cb LIG
71 11 4 -0.190923 31.251045 37.245796 19.134995 # Cd LIG
72 11 2 -0.169815 10.110677 0.114751 19.895992 # Cb LIG
73 11 4 -0.190923 22.267046 36.706799 18.932993 # Cd LIG
74 11 4 -0.190923 23.362045 36.054798 19.479994 # Cd LIG
75 11 1 1.051130 29.320045 35.781796 18.713993 # Ca LIG
76 11 3 0.616091 35.486675 2.148752 18.178993 # Cc LIG
77 11 2 -0.169815 41.071674 1.308751 24.158993 # Cb LIG
78 11 4 -0.190923 42.211674 0.682752 17.759995 # Cd LIG
79 11 2 -0.169815 21.076046 37.804798 23.917994 # Cb LIG
80 11 4 -0.190923 33.240677 1.216751 17.961994 # Cd LIG
81 11 4 -0.190923 34.333675 1.870752 17.412994 # Cd LIG
82 11 1 1.051130 40.288677 2.155752 18.177994 # Ca LIG
83 11 3 0.616091 38.993675 6.155752 20.489994 # Cc LIG
84 11 2 -0.169815 35.481674 1.734752 19.546993 # Cb LIG
85 11 4 -0.190923 34.363674 1.059752 20.065994 # Cd LIG
86 11 2 -0.169815 33.226677 0.792752 19.307993 # Cb LIG
87 11 4 -0.190923 39.305676 8.567751 20.274994 # Cd LIG
88 11 4 -0.190923 39.330677 7.294753 19.725994 # Cd LIG
89 11 1 1.051130 36.600677 1.992751 20.483994 # Ca LIG
90 11 3 0.616091 40.710674 1.108752 22.790993 # Cc LIG
91 11 2 -0.169815 38.634674 6.366752 21.857994 # Cb LIG
92 11 4 -0.190923 38.602676 7.671751 22.376993 # Cd LIG
93 11 2 -0.169815 38.937675 8.791752 21.618994 # Cb LIG
94 11 4 -0.190923 20.702045 37.607796 22.571993 # Cd LIG
95 11 4 -0.190923 41.526676 0.248752 22.022993 # Cd LIG
96 11 1 1.051130 38.302677 5.266752 22.794994 # Ca LIG
97 11 9 -0.683695 39.631676 1.669752 22.198994 # Oc LIG
98 11 7 -0.688200 38.422676 4.052752 22.380993 # Oa LIG
99 11 8 -0.706966 40.708675 2.336751 19.371994 # Ob LIG
100 11 9 -0.683695 39.053677 4.941752 19.896994 # Oc LIG
101 11 7 -0.688200 37.592674 2.703752 20.072994 # Oa LIG
102 11 8 -0.706966 37.935677 5.538752 23.987993 # Ob LIG
103 11 9 -0.683695 36.509674 2.805752 17.587994 # Oc LIG
104 11 7 -0.688200 39.177677 2.662752 17.765993 # Oa LIG
105 11 8 -0.706966 36.548676 1.535752 21.676994 # Ob LIG
106 11 9 -0.683695 25.540045 35.125797 19.304993 # Oc LIG
107 11 7 -0.688200 28.207047 35.279797 19.124992 # Oa LIG
108 11 8 -0.706966 25.574045 36.390797 22.131992 # Ob LIG
109 11 9 -0.683695 28.081045 32.994797 23.913994 # Oc LIG
110 11 7 -0.688200 26.626045 35.231796 23.737993 # Oa LIG
111 11 8 -0.706966 26.981045 32.390797 19.821993 # Ob LIG
112 11 9 -0.683695 28.661045 36.264797 21.611994 # Oc LIG
113 11 7 -0.688200 27.457047 33.878796 21.429993 # Oa LIG
114 11 8 -0.706966 29.741045 35.599796 17.520992 # Ob LIG
115 11 6 0.135033 23.444422 37.214989 1.953002 # H LIG
116 11 6 0.135033 28.605253 30.803890 25.145990 # H LIG
117 11 6 0.135033 28.569424 28.543987 3.434002 # H LIG
118 11 6 0.135033 27.351254 30.150890 27.312990 # H LIG
119 11 6 0.135033 10.317055 1.020943 1.109001 # H LIG
120 11 6 0.135033 30.274422 37.882988 2.074002 # H LIG
121 11 6 0.135033 31.504253 37.033890 25.013990 # H LIG
122 11 6 0.135033 21.385254 36.870888 26.471991 # H LIG
123 11 6 0.135033 23.349253 35.718891 27.435991 # H LIG
124 11 6 0.135033 42.464882 0.896844 25.716991 # H LIG
125 11 6 0.135033 32.357883 1.055844 24.259991 # H LIG
126 11 6 0.135033 34.316051 2.228943 2.539002 # H LIG
127 11 6 0.135033 39.608883 9.417843 26.574991 # H LIG
128 11 6 0.135033 34.420052 0.760942 0.352002 # H LIG
129 11 6 0.135033 39.635883 7.142844 25.606991 # H LIG
130 11 6 0.135033 41.239052 0.095942 0.231002 # H LIG
131 11 6 0.135033 21.281422 36.950989 1.197002 # H LIG
132 11 6 0.135033 38.284054 7.807943 2.662001 # H LIG
133 11 11 0.918944 26.901253 33.851891 25.345991 # Zn LIG
134 11 11 0.918944 28.512423 34.838989 2.285002 # Zn LIG
135 11 11 0.918944 26.872253 35.729889 27.652990 # Zn LIG
136 11 11 0.918944 37.838051 2.229942 2.322002 # Zn LIG
137 11 11 0.918944 37.868885 4.090845 25.384991 # Zn LIG
138 11 11 0.918944 39.481052 3.150943 0.017002 # Zn LIG
139 11 3 0.616091 28.013422 31.804989 2.572002 # Cc LIG
140 11 2 -0.169815 24.509253 36.197887 24.262991 # Cb LIG
141 11 4 -0.190923 23.386423 36.888988 2.992002 # Cd LIG
142 11 2 -0.169815 22.252253 37.133888 24.504992 # Cb LIG
143 11 4 -0.190923 28.294422 29.392988 2.804002 # Cd LIG
144 11 4 -0.190923 28.320423 30.666988 3.349002 # Cd LIG
145 11 1 1.051130 25.625423 35.963989 2.572002 # Ca LIG
146 11 3 0.616091 29.739422 36.846989 0.267002 # Cc LIG
147 11 2 -0.169815 27.670422 31.592987 1.201001 # Cb LIG
148 11 4 -0.190923 27.643421 30.286987 0.685002 # Cd LIG
149 11 2 -0.169815 27.960423 29.167988 1.452001 # Cb LIG
150 11 4 -0.190923 9.732055 0.339943 0.488002 # Cd LIG
151 11 4 -0.190923 30.559422 37.702988 1.035002 # Cd LIG
152 11 1 1.051130 27.340424 32.690987 0.262002 # Ca LIG
153 11 3 0.616091 24.515253 35.781891 25.630991 # Cc LIG
154 11 2 -0.169815 30.106253 36.619888 26.570992 # Cb LIG
155 11 4 -0.190923 31.252253 37.247890 26.052992 # Cd LIG
156 11 2 -0.169815 10.111885 0.116844 26.813992 # Cb LIG
157 11 4 -0.190923 22.268253 36.708889 25.850990 # Cd LIG
158 11 4 -0.190923 23.363253 36.056889 26.397991 # Cd LIG
159 11 1 1.051130 29.321253 35.783890 25.631990 # Ca LIG
160 11 3 0.616091 35.487885 2.150844 25.096991 # Cc LIG
161 11 2 -0.169815 41.068054 1.335942 3.405001 # Cb LIG
162 11 4 -0.190923 42.212883 0.684844 24.677990 # Cd LIG
163 11 2 -0.169815 21.072422 37.831985 3.164002 # Cb LIG
164 11 4 -0.190923 33.241882 1.218844 24.879992 # Cd LIG
165 11 4 -0.190923 34.334885 1.872844 24.330992 # Cd LIG
166 11 1 1.051130 40.289883 2.157844 25.095991 # Ca LIG
167 11 3 0.616091 38.994884 6.157844 27.407991 # Cc LIG
168 11 2 -0.169815 35.482883 1.736844 26.464991 # Cb LIG
169 11 4 -0.190923 34.364883 1.061844 26.983992 # Cd LIG
170 11 2 -0.169815 33.227882 0.794844 26.225990 # Cb LIG
171 11 4 -0.190923 39.306885 8.569843 27.192991 # Cd LIG
172 11 4 -0.190923 39.331882 7.296845 26.643991 # Cd LIG
173 11 1 1.051130 36.601883 1.994844 27.401991 # Ca LIG
174 11 3 0.616091 40.707054 1.135942 2.037001 # Cc LIG
175 11 2 -0.169815 38.631054 6.393943 1.104002 # Cb LIG
176 11 4 -0.190923 38.599052 7.698942 1.623001 # Cd LIG
177 11 2 -0.169815 38.934052 8.818943 0.865001 # Cb LIG
178 11 4 -0.190923 20.698421 37.634987 1.818002 # Cd LIG
179 11 4 -0.190923 41.523052 0.275943 1.269002 # Cd LIG
180 11 1 1.051130 38.299053 5.293942 2.041002 # Ca LIG
181 11 9 -0.683695 39.628052 1.696942 1.445001 # Oc LIG
182 11 7 -0.688200 38.419052 4.079943 1.627002 # Oa LIG
183 11 8 -0.706966 40.709885 2.338844 26.289991 # Ob LIG
184 11 9 -0.683695 39.054882 4.943844 26.814991 # Oc LIG
185 11 7 -0.688200 37.593884 2.705844 26.990992 # Oa LIG
186 11 8 -0.706966 37.932053 5.565943 3.234001 # Ob LIG
187 11 9 -0.683695 36.510883 2.807845 24.505991 # Oc LIG
188 11 7 -0.688200 39.178883 2.664844 24.683990 # Oa LIG
189 11 8 -0.706966 36.545052 1.562943 0.923002 # Ob LIG
190 11 9 -0.683695 25.541254 35.127892 26.222992 # Oc LIG
191 11 7 -0.688200 28.208254 35.281891 26.042992 # Oa LIG
192 11 8 -0.706966 25.570423 36.417988 1.378001 # Ob LIG
193 11 9 -0.683695 28.077423 33.021988 3.160002 # Oc LIG
194 11 7 -0.688200 26.622421 35.258987 2.984001 # Oa LIG
195 11 8 -0.706966 26.982254 32.392891 26.739990 # Ob LIG
196 11 9 -0.683695 28.657421 36.291988 0.858001 # Oc LIG
197 11 7 -0.688200 27.453423 33.905987 0.676002 # Oa LIG
198 11 8 -0.706966 29.742252 35.601891 24.438992 # Ob LIG
199 11 6 0.135033 23.445629 37.217079 8.870998 # H LIG
200 11 6 0.135033 28.601631 30.831081 4.391998 # H LIG
201 11 6 0.135033 28.570631 28.546082 10.351998 # H LIG
202 11 6 0.135033 27.347630 30.178080 6.558998 # H LIG
203 11 6 0.135033 10.318262 1.023035 8.026999 # H LIG
204 11 6 0.135033 30.275631 37.885078 8.991999 # H LIG
205 11 6 0.135033 31.500629 37.061081 4.259998 # H LIG
206 11 6 0.135033 21.381630 36.898079 5.717999 # H LIG
207 11 6 0.135033 23.345631 35.746078 6.681998 # H LIG
208 11 6 0.135033 42.461262 0.924035 4.962998 # H LIG
209 11 6 0.135033 32.354259 1.083035 3.505998 # H LIG
210 11 6 0.135033 34.317261 2.231035 9.456999 # H LIG
211 11 6 0.135033 39.605259 9.445034 5.820998 # H LIG
212 11 6 0.135033 34.421261 0.763035 7.269999 # H LIG
213 11 6 0.135033 39.632259 7.170034 4.852999 # H LIG
214 11 6 0.135033 41.240261 0.098035 7.148998 # H LIG
215 11 6 0.135033 21.282631 36.953079 8.114999 # H LIG
216 11 6 0.135033 38.285259 7.810036 9.579998 # H LIG
217 11 11 0.918944 26.897631 33.879082 4.591999 # Zn LIG
218 11 11 0.918944 28.513630 34.841080 9.202998 # Zn LIG
219 11 11 0.918944 26.868629 35.757080 6.898998 # Zn LIG
220 11 11 0.918944 37.839260 2.232035 9.239999 # Zn LIG
221 11 11 0.918944 37.865261 4.118035 4.630999 # Zn LIG
222 11 11 0.918944 39.482262 3.153035 6.934999 # Zn LIG
223 11 3 0.616091 28.014629 31.807079 9.489999 # Cc LIG
224 11 2 -0.169815 24.505630 36.225079 3.508998 # Cb LIG
225 11 4 -0.190923 23.387630 36.891079 9.909999 # Cd LIG
226 11 2 -0.169815 22.248631 37.161079 3.750998 # Cb LIG
227 11 4 -0.190923 28.295630 29.395081 9.721998 # Cd LIG
228 11 4 -0.190923 28.321630 30.669081 10.266998 # Cd LIG
229 11 1 1.051130 25.626631 35.966080 9.489999 # Ca LIG
230 11 3 0.616091 29.740631 36.849079 7.184999 # Cc LIG
231 11 2 -0.169815 27.671631 31.595081 8.118999 # Cb LIG
232 11 4 -0.190923 27.644630 30.289080 7.602999 # Cd LIG
233 11 2 -0.169815 27.961630 29.170080 8.369998 # Cb LIG
234 11 4 -0.190923 9.733263 0.342035 7.405998 # Cd LIG
235 11 4 -0.190923 30.560631 37.705078 7.952998 # Cd LIG
236 11 1 1.051130 27.341631 32.693081 7.179998 # Ca LIG
237 11 3 0.616091 24.511631 35.809082 4.876998 # Cc LIG
238 11 2 -0.169815 30.102631 36.647079 5.816998 # Cb LIG
239 11 4 -0.190923 31.248631 37.275078 5.298998 # Cd LIG
240 11 2 -0.169815 10.108263 0.144034 6.059999 # Cb LIG
241 11 4 -0.190923 22.264629 36.736080 5.096998 # Cd LIG
242 11 4 -0.190923 23.359631 36.084080 5.643998 # Cd LIG
243 11 1 1.051130 29.317631 35.811081 4.877998 # Ca LIG
244 11 3 0.616091 35.484261 2.178035 4.342999 # Cc LIG
245 11 2 -0.169815 41.069260 1.338035 10.322998 # Cb LIG
246 11 4 -0.190923 42.209259 0.712035 3.923998 # Cd LIG
247 11 2 -0.169815 21.073631 37.834080 10.081999 # Cb LIG
248 11 4 -0.190923 33.238258 1.246035 4.125998 # Cd LIG
249 11 4 -0.190923 34.331261 1.900035 3.576998 # Cd LIG
250 11 1 1.051130 40.286263 2.185035 4.341999 # Ca LIG
251 11 3 0.616091 38.991261 6.185035 6.653998 # Cc LIG
252 11 2 -0.169815 35.479259 1.764035 5.710999 # Cb LIG
253 11 4 -0.190923 34.361259 1.089035 6.229999 # Cd LIG
254 11 2 -0.169815 33.224258 0.822035 5.471998 # Cb LIG
255 11 4 -0.190923 39.303261 8.597034 6.438998 # Cd LIG
256 11 4 -0.190923 39.328262 7.324036 5.889998 # Cd LIG
257 11 1 1.051130 36.598259 2.022035 6.647998 # Ca LIG
258 11 3 0.616091 40.708260 1.138035 8.954998 # Cc LIG
259 11 2 -0.169815 38.632259 6.396035 8.021998 # Cb LIG
260 11 4 -0.190923 38.600262 7.701035 8.540998 # Cd LIG
261 11 2 -0.169815 38.935261 8.821035 7.782998 # Cb LIG
262 11 4 -0.190923 20.699631 37.637081 8.735998 # Cd LIG
263 11 4 -0.190923 41.524261 0.278035 8.186998 # Cd LIG
264 11 1 1.051130 38.300262 5.296035 8.958999 # Ca LIG
265 11 9 -0.683695 39.629261 1.699035 8.362998 # Oc LIG
266 11 7 -0.688200 38.420261 4.082035 8.544998 # Oa LIG
267 11 8 -0.706966 40.706261 2.366035 5.535998 # Ob LIG
268 11 9 -0.683695 39.051262 4.971035 6.060998 # Oc LIG
269 11 7 -0.688200 37.590260 2.733035 6.236999 # Oa LIG
270 11 8 -0.706966 37.933262 5.568035 10.151999 # Ob LIG
271 11 9 -0.683695 36.507259 2.835035 3.751998 # Oc LIG
272 11 7 -0.688200 39.175262 2.692035 3.929998 # Oa LIG
273 11 8 -0.706966 36.546261 1.565035 7.840999 # Ob LIG
274 11 9 -0.683695 25.537630 35.155079 5.468998 # Oc LIG
275 11 7 -0.688200 28.204630 35.309082 5.288999 # Oa LIG
276 11 8 -0.706966 25.571630 36.420082 8.295999 # Ob LIG
277 11 9 -0.683695 28.078630 33.024078 10.077998 # Oc LIG
278 11 7 -0.688200 26.623631 35.261082 9.901999 # Oa LIG
279 11 8 -0.706966 26.978630 32.420082 5.985998 # Ob LIG
280 11 9 -0.683695 28.658630 36.294079 7.775998 # Oc LIG
281 11 7 -0.688200 27.454630 33.908081 7.593999 # Oa LIG
282 11 8 -0.706966 29.738630 35.629082 3.684999 # Ob LIG
283 11 6 0.135033 23.446838 37.219173 15.788996 # H LIG
284 11 6 0.135033 28.602839 30.833172 11.309996 # H LIG
285 11 6 0.135033 28.571838 28.548172 17.269997 # H LIG
286 11 6 0.135033 27.348837 30.180172 13.476995 # H LIG
287 11 6 0.135033 10.319469 1.025127 14.944996 # H LIG
288 11 6 0.135033 30.276838 37.887173 15.909996 # H LIG
289 11 6 0.135033 31.501837 37.063171 11.177996 # H LIG
290 11 6 0.135033 21.382837 36.900173 12.635996 # H LIG
291 11 6 0.135033 23.346838 35.748173 13.599997 # H LIG
292 11 6 0.135033 42.462467 0.926127 11.880996 # H LIG
293 11 6 0.135033 32.355469 1.085127 10.423996 # H LIG
294 11 6 0.135033 34.318466 2.233128 16.374996 # H LIG
295 11 6 0.135033 39.606468 9.447126 12.738997 # H LIG
296 11 6 0.135033 34.422470 0.765127 14.187996 # H LIG
297 11 6 0.135033 39.633469 7.172127 11.770996 # H LIG
298 11 6 0.135033 41.241467 0.100127 14.066996 # H LIG
299 11 6 0.135033 21.283838 36.955173 15.032996 # H LIG
300 11 6 0.135033 38.286469 7.812128 16.497995 # H LIG
301 11 11 0.918944 26.898838 33.881172 11.509996 # Zn LIG
302 11 11 0.918944 28.514837 34.843174 16.120996 # Zn LIG
303 11 11 0.918944 26.869837 35.759171 13.816996 # Zn LIG
304 11 11 0.918944 37.840469 2.234127 16.157997 # Zn LIG
305 11 11 0.918944 37.866467 4.120128 11.548996 # Zn LIG
306 11 11 0.918944 39.483467 3.155128 13.852996 # Zn LIG
307 11 3 0.616091 28.015837 31.809174 16.407997 # Cc LIG
308 11 2 -0.169815 24.506838 36.227173 10.426996 # Cb LIG
309 11 4 -0.190923 23.388838 36.893173 16.827995 # Cd LIG
310 11 2 -0.169815 22.249838 37.163174 10.668996 # Cb LIG
311 11 4 -0.190923 28.296837 29.397173 16.639996 # Cd LIG
312 11 4 -0.190923 28.322838 30.671173 17.184996 # Cd LIG
313 11 1 1.051130 25.627838 35.968174 16.407997 # Ca LIG
314 11 3 0.616091 29.741838 36.851173 14.102996 # Cc LIG
315 11 2 -0.169815 27.672838 31.597172 15.036996 # Cb LIG
316 11 4 -0.190923 27.645838 30.291172 14.520996 # Cd LIG
317 11 2 -0.169815 27.962837 29.172173 15.287996 # Cb LIG
318 11 4 -0.190923 9.734470 0.344128 14.323996 # Cd LIG
319 11 4 -0.190923 30.561838 37.707172 14.870996 # Cd LIG
320 11 1 1.051130 27.342838 32.695171 14.097996 # Ca LIG
321 11 3 0.616091 24.512838 35.811172 11.794996 # Cc LIG
322 11 2 -0.169815 30.103838 36.649174 12.734996 # Cb LIG
323 11 4 -0.190923 31.249838 37.277172 12.216996 # Cd LIG
324 11 2 -0.169815 10.109470 0.146127 12.977996 # Cb LIG
325 11 4 -0.190923 22.265839 36.738174 12.014996 # Cd LIG
326 11 4 -0.190923 23.360838 36.086174 12.561996 # Cd LIG
327 11 1 1.051130 29.318838 35.813171 11.795996 # Ca LIG
328 11 3 0.616091 35.485466 2.180127 11.260996 # Cc LIG
329 11 2 -0.169815 41.070469 1.340127 17.240995 # Cb LIG
330 11 4 -0.190923 42.210468 0.714128 10.841996 # Cd LIG
331 11 2 -0.169815 21.074837 37.836174 16.999996 # Cb LIG
332 11 4 -0.190923 33.239468 1.248127 11.043996 # Cd LIG
333 11 4 -0.190923 34.332466 1.902127 10.494996 # Cd LIG
334 11 1 1.051130 40.287468 2.187127 11.259996 # Ca LIG
335 11 3 0.616091 38.992470 6.187127 13.571996 # Cc LIG
336 11 2 -0.169815 35.480469 1.766128 12.628996 # Cb LIG
337 11 4 -0.190923 34.362469 1.091127 13.147996 # Cd LIG
338 11 2 -0.169815 33.225468 0.824127 12.389996 # Cb LIG
339 11 4 -0.190923 39.304466 8.599127 13.356997 # Cd LIG
340 11 4 -0.190923 39.329468 7.326128 12.807996 # Cd LIG
341 11 1 1.051130 36.599468 2.024127 13.565996 # Ca LIG
342 11 3 0.616091 40.709469 1.140127 15.872995 # Cc LIG
343 11 2 -0.169815 38.633469 6.398128 14.939997 # Cb LIG
344 11 4 -0.190923 38.601467 7.703127 15.458996 # Cd LIG
345 11 2 -0.169815 38.936466 8.823128 14.700996 # Cb LIG
346 11 4 -0.190923 20.700838 37.639172 15.653996 # Cd LIG
347 11 4 -0.190923 41.525467 0.280128 15.104996 # Cd LIG
348 11 1 1.051130 38.301468 5.298127 15.876996 # Ca LIG
349 11 9 -0.683695 39.630466 1.701127 15.280996 # Oc LIG
350 11 7 -0.688200 38.421467 4.084127 15.462996 # Oa LIG
351 11 8 -0.706966 40.707466 2.368127 12.453996 # Ob LIG
352 11 9 -0.683695 39.052467 4.973127 12.978996 # Oc LIG
353 11 7 -0.688200 37.591469 2.735127 13.154996 # Oa LIG
354 11 8 -0.706966 37.934467 5.570127 17.069996 # Ob LIG
355 11 9 -0.683695 36.508469 2.837128 10.669996 # Oc LIG
356 11 7 -0.688200 39.176468 2.694127 10.847996 # Oa LIG
357 11 8 -0.706966 36.547466 1.567127 14.758996 # Ob LIG
358 11 9 -0.683695 25.538837 35.157173 12.386996 # Oc LIG
359 11 7 -0.688200 28.205837 35.311172 12.206996 # Oa LIG
360 11 8 -0.706966 25.572838 36.422173 15.213996 # Ob LIG
361 11 9 -0.683695 28.079838 33.026173 16.995996 # Oc LIG
362 11 7 -0.688200 26.624838 35.263172 16.819996 # Oa LIG
363 11 8 -0.706966 26.979837 32.422173 12.903996 # Ob LIG
364 11 9 -0.683695 28.659838 36.296173 14.693996 # Oc LIG
365 11 7 -0.688200 27.455837 33.910172 14.511996 # Oa LIG
366 11 8 -0.706966 29.739838 35.631172 10.602996 # Ob LIG
367 11 6 0.135033 34.416359 18.197775 22.706993 # H LIG
368 11 6 0.135033 39.572361 11.811774 18.227993 # H LIG
369 11 6 0.135033 39.541359 9.526774 24.187994 # H LIG
370 11 6 0.135033 38.318359 11.158774 20.394993 # H LIG
371 11 6 0.135033 43.230362 19.983774 21.862993 # H LIG
372 11 6 0.135033 41.246361 18.865774 22.827993 # H LIG
373 11 6 0.135033 42.471359 18.041773 18.095993 # H LIG
374 11 6 0.135033 32.352360 17.878775 19.553993 # H LIG
375 11 6 0.135033 34.316360 16.726774 20.517994 # H LIG
376 11 6 0.135033 31.495359 19.884775 18.798992 # H LIG
377 11 6 0.135033 21.388361 20.043774 17.341993 # H LIG
378 11 6 0.135033 23.351360 21.191774 23.292994 # H LIG
379 11 6 0.135033 28.639359 28.405773 19.656994 # H LIG
380 11 6 0.135033 23.455360 19.723774 21.105993 # H LIG
381 11 6 0.135033 28.666359 26.130774 18.688993 # H LIG
382 11 6 0.135033 30.274361 19.058775 20.984993 # H LIG
383 11 6 0.135033 32.253361 17.933775 21.950993 # H LIG
384 11 6 0.135033 27.319361 26.770775 23.415993 # H LIG
385 11 11 0.918944 37.868359 14.859774 18.427994 # Zn LIG
386 11 11 0.918944 39.484360 15.821774 23.038994 # Zn LIG
387 11 11 0.918944 37.839359 16.737774 20.734993 # Zn LIG
388 11 11 0.918944 26.873360 21.192774 23.075993 # Zn LIG
389 11 11 0.918944 26.899361 23.078775 18.466993 # Zn LIG
390 11 11 0.918944 28.516359 22.113775 20.770992 # Zn LIG
391 11 3 0.616091 38.985359 12.787774 23.325993 # Cc LIG
392 11 2 -0.169815 35.476360 17.205774 17.344994 # Cb LIG
393 11 4 -0.190923 34.358360 17.871775 23.745995 # Cd LIG
394 11 2 -0.169815 33.219360 18.141775 17.586994 # Cb LIG
395 11 4 -0.190923 39.266361 10.375774 23.557993 # Cd LIG
396 11 4 -0.190923 39.292358 11.649775 24.102993 # Cd LIG
397 11 1 1.051130 36.597359 16.946774 23.325993 # Ca LIG
398 11 3 0.616091 40.711361 17.829775 21.020992 # Cc LIG
399 11 2 -0.169815 38.642361 12.575774 21.954994 # Cb LIG
400 11 4 -0.190923 38.615360 11.269773 21.438993 # Cd LIG
401 11 2 -0.169815 38.932362 10.150774 22.205994 # Cb LIG
402 11 4 -0.190923 42.645359 19.302774 21.241993 # Cd LIG
403 11 4 -0.190923 41.531361 18.685774 21.788994 # Cd LIG
404 11 1 1.051130 38.312359 13.673774 21.015993 # Ca LIG
405 11 3 0.616091 35.482361 16.789774 18.712994 # Cc LIG
406 11 2 -0.169815 41.073360 17.627775 19.652992 # Cb LIG
407 11 4 -0.190923 42.219360 18.255774 19.134995 # Cd LIG
408 11 2 -0.169815 43.020359 19.104773 19.895992 # Cb LIG
409 11 4 -0.190923 33.235359 17.716774 18.932993 # Cd LIG
410 11 4 -0.190923 34.330360 17.064774 19.479994 # Cd LIG
411 11 1 1.051130 40.288361 16.791773 18.713993 # Ca LIG
412 11 3 0.616091 24.518360 21.138773 18.178993 # Cc LIG
413 11 2 -0.169815 30.103359 20.298773 24.158993 # Cb LIG
414 11 4 -0.190923 31.243359 19.672773 17.759995 # Cd LIG
415 11 2 -0.169815 32.044361 18.814774 23.917994 # Cb LIG
416 11 4 -0.190923 22.272360 20.206774 17.961994 # Cd LIG
417 11 4 -0.190923 23.365360 20.860773 17.412994 # Cd LIG
418 11 1 1.051130 29.320358 21.145773 18.177994 # Ca LIG
419 11 3 0.616091 28.025360 25.145773 20.489994 # Cc LIG
420 11 2 -0.169815 24.513361 20.724775 19.546993 # Cb LIG
421 11 4 -0.190923 23.395361 20.049774 20.065994 # Cd LIG
422 11 2 -0.169815 22.258360 19.782774 19.307993 # Cb LIG
423 11 4 -0.190923 28.337360 27.557774 20.274994 # Cd LIG
424 11 4 -0.190923 28.362360 26.284775 19.725994 # Cd LIG
425 11 1 1.051130 25.632360 20.982775 20.483994 # Ca LIG
426 11 3 0.616091 29.742359 20.098774 22.790993 # Cc LIG
427 11 2 -0.169815 27.666361 25.356775 21.857994 # Cb LIG
428 11 4 -0.190923 27.634361 26.661774 22.376993 # Cd LIG
429 11 2 -0.169815 27.969360 27.781775 21.618994 # Cb LIG
430 11 4 -0.190923 31.670361 18.617773 22.571993 # Cd LIG
431 11 4 -0.190923 30.558361 19.238775 22.022993 # Cd LIG
432 11 1 1.051130 27.334360 24.256773 22.794994 # Ca LIG
433 11 9 -0.683695 28.663361 20.659773 22.198994 # Oc LIG
434 11 7 -0.688200 27.454361 23.042774 22.380993 # Oa LIG
435 11 8 -0.706966 29.740360 21.326773 19.371994 # Ob LIG
436 11 9 -0.683695 28.085360 23.931774 19.896994 # Oc LIG
437 11 7 -0.688200 26.624361 21.693773 20.072994 # Oa LIG
438 11 8 -0.706966 26.967361 24.528774 23.987993 # Ob LIG
439 11 9 -0.683695 25.541361 21.795774 17.587994 # Oc LIG
440 11 7 -0.688200 28.209358 21.652773 17.765993 # Oa LIG
441 11 8 -0.706966 25.580360 20.525774 21.676994 # Ob LIG
442 11 9 -0.683695 36.508362 16.135775 19.304993 # Oc LIG
443 11 7 -0.688200 39.175362 16.289774 19.124992 # Oa LIG
444 11 8 -0.706966 36.542358 17.400774 22.131992 # Ob LIG
445 11 9 -0.683695 39.049358 14.004774 23.913994 # Oc LIG
446 11 7 -0.688200 37.594360 16.241774 23.737993 # Oa LIG
447 11 8 -0.706966 37.949360 13.400774 19.821993 # Ob LIG
448 11 9 -0.683695 39.629360 17.274775 21.611994 # Oc LIG
449 11 7 -0.688200 38.425362 14.888774 21.429993 # Oa LIG
450 11 8 -0.706966 40.709358 16.609774 17.520992 # Ob LIG
451 11 6 0.135033 34.412735 18.224964 1.953002 # H LIG
452 11 6 0.135033 39.573566 11.813867 25.145990 # H LIG
453 11 6 0.135033 39.537735 9.553966 3.434002 # H LIG
454 11 6 0.135033 38.319569 11.160867 27.312990 # H LIG
455 11 6 0.135033 43.226738 20.010965 1.109001 # H LIG
456 11 6 0.135033 41.242737 18.892965 2.074002 # H LIG
457 11 6 0.135033 42.472569 18.043867 25.013990 # H LIG
458 11 6 0.135033 32.353569 17.880865 26.471991 # H LIG
459 11 6 0.135033 34.317566 16.728867 27.435991 # H LIG
460 11 6 0.135033 31.496567 19.886866 25.716991 # H LIG
461 11 6 0.135033 21.389568 20.045866 24.259991 # H LIG
462 11 6 0.135033 23.347736 21.218966 2.539002 # H LIG
463 11 6 0.135033 28.640568 28.407866 26.574991 # H LIG
464 11 6 0.135033 23.451736 19.750965 0.352002 # H LIG
465 11 6 0.135033 28.667568 26.132866 25.606991 # H LIG
466 11 6 0.135033 30.270737 19.085964 0.231002 # H LIG
467 11 6 0.135033 32.249737 17.960964 1.197002 # H LIG
468 11 6 0.135033 27.315737 26.797966 2.662001 # H LIG
469 11 11 0.918944 37.869568 14.861866 25.345991 # Zn LIG
470 11 11 0.918944 39.480736 15.848965 2.285002 # Zn LIG
471 11 11 0.918944 37.840569 16.739866 27.652990 # Zn LIG
472 11 11 0.918944 26.869736 21.219965 2.322002 # Zn LIG
473 11 11 0.918944 26.900568 23.080866 25.384991 # Zn LIG
474 11 11 0.918944 28.512737 22.140965 0.017002 # Zn LIG
475 11 3 0.616091 38.981735 12.814965 2.572002 # Cc LIG
476 11 2 -0.169815 35.477566 17.207867 24.262991 # Cb LIG
477 11 4 -0.190923 34.354736 17.898964 2.992002 # Cd LIG
478 11 2 -0.169815 33.220566 18.143866 24.504992 # Cb LIG
479 11 4 -0.190923 39.262737 10.402966 2.804002 # Cd LIG
480 11 4 -0.190923 39.288734 11.676966 3.349002 # Cd LIG
481 11 1 1.051130 36.593735 16.973965 2.572002 # Ca LIG
482 11 3 0.616091 40.707737 17.856964 0.267002 # Cc LIG
483 11 2 -0.169815 38.638737 12.602965 1.201001 # Cb LIG
484 11 4 -0.190923 38.611736 11.296965 0.685002 # Cd LIG
485 11 2 -0.169815 38.928738 10.177965 1.452001 # Cb LIG
486 11 4 -0.190923 42.641739 19.329966 0.488002 # Cd LIG
487 11 4 -0.190923 41.527737 18.712965 1.035002 # Cd LIG
488 11 1 1.051130 38.308739 13.700965 0.262002 # Ca LIG
489 11 3 0.616091 35.483566 16.791866 25.630991 # Cc LIG
490 11 2 -0.169815 41.074566 17.629866 26.570992 # Cb LIG
491 11 4 -0.190923 42.220566 18.257866 26.052992 # Cd LIG
492 11 2 -0.169815 43.021568 19.106867 26.813992 # Cb LIG
493 11 4 -0.190923 33.236568 17.718866 25.850990 # Cd LIG
494 11 4 -0.190923 34.331566 17.066866 26.397991 # Cd LIG
495 11 1 1.051130 40.289566 16.793867 25.631990 # Ca LIG
496 11 3 0.616091 24.519567 21.140867 25.096991 # Cc LIG
497 11 2 -0.169815 30.099737 20.325966 3.405001 # Cb LIG
498 11 4 -0.190923 31.244568 19.674868 24.677990 # Cd LIG
499 11 2 -0.169815 32.040737 18.841965 3.164002 # Cb LIG
500 11 4 -0.190923 22.273567 20.208866 24.879992 # Cd LIG
501 11 4 -0.190923 23.366568 20.862867 24.330992 # Cd LIG
502 11 1 1.051130 29.321568 21.147867 25.095991 # Ca LIG
503 11 3 0.616091 28.026566 25.147867 27.407991 # Cc LIG
504 11 2 -0.169815 24.514568 20.726866 26.464991 # Cb LIG
505 11 4 -0.190923 23.396568 20.051867 26.983992 # Cd LIG
506 11 2 -0.169815 22.259567 19.784866 26.225990 # Cb LIG
507 11 4 -0.190923 28.338566 27.559866 27.192991 # Cd LIG
508 11 4 -0.190923 28.363567 26.286867 26.643991 # Cd LIG
509 11 1 1.051130 25.633568 20.984865 27.401991 # Ca LIG
510 11 3 0.616091 29.738737 20.125965 2.037001 # Cc LIG
511 11 2 -0.169815 27.662737 25.383965 1.104002 # Cb LIG
512 11 4 -0.190923 27.630737 26.688965 1.623001 # Cd LIG
513 11 2 -0.169815 27.965736 27.808966 0.865001 # Cb LIG
514 11 4 -0.190923 31.666737 18.644966 1.818002 # Cd LIG
515 11 4 -0.190923 30.554737 19.265965 1.269002 # Cd LIG
516 11 1 1.051130 27.330736 24.283966 2.041002 # Ca LIG
517 11 9 -0.683695 28.659737 20.686966 1.445001 # Oc LIG
518 11 7 -0.688200 27.450737 23.069965 1.627002 # Oa LIG
519 11 8 -0.706966 29.741566 21.328867 26.289991 # Ob LIG
520 11 9 -0.683695 28.086567 23.933867 26.814991 # Oc LIG