LAMMPS data file. CGCMM style. atom_style full generated by VMD/TopoTools v1.5 on Sun Mar 05 19:09:46 PST 2017
 1359 atoms
 0 bonds
 0 angles
 0 dihedrals
 0 impropers
 10 atom types
 0 bond types
 0 angle types
 0 dihedral types
 0 improper types
 0.439550 26.456750  xlo xhi
 0.332838 45.395937  ylo yhi
 -0.000000 27.315479  zlo zhi

# Pair Coeffs
#
# 1  CH4
# 2  Ca
# 3  Cb
# 4  Cc
# 5  Cd
# 6  H
# 7  Ni
# 8  Oa
# 9  Ob
# 10  Oc

 Masses

 1 16.040001 # CH4
 2 12.011000 # Ca
 3 12.011000 # Cb
 4 12.011000 # Cc
 5 12.011000 # Cd
 6 1.008000 # H
 7 58.693001 # Ni
 8 15.999000 # Oa
 9 15.999000 # Ob
 10 15.999000 # Oc

 Atoms

1 1 1 0.000000 26.017300 45.062775 14.511001 # CH4 
2 1 1 0.000000 26.017300 45.062775 16.218000 # CH4 
3 1 1 0.000000 26.017300 45.062775 17.924999 # CH4 
4 1 1 0.000000 26.017300 45.062775 19.632999 # CH4 
5 1 1 0.000000 26.017300 45.062775 21.340000 # CH4 
6 1 1 0.000000 26.017300 45.062775 23.047001 # CH4 
7 1 1 0.000000 26.017300 45.062775 24.754000 # CH4 
8 1 1 0.000000 26.017300 45.062775 26.461000 # CH4 
9 1 1 0.000000 26.017300 45.062775 0.854000 # CH4 
10 1 1 0.000000 26.017300 45.062775 2.561000 # CH4 
11 1 1 0.000000 26.017300 45.062775 4.268000 # CH4 
12 1 1 0.000000 26.017300 45.062775 5.975000 # CH4 
13 1 1 0.000000 26.017300 45.062775 7.682000 # CH4 
14 1 1 0.000000 26.017300 45.062775 9.390000 # CH4 
15 1 1 0.000000 26.017300 45.062775 11.097000 # CH4 
16 1 1 0.000000 26.017300 45.062775 12.804000 # CH4 
17 1 1 0.000000 26.017300 22.531775 14.511001 # CH4 
18 1 1 0.000000 26.017300 22.531775 16.218000 # CH4 
19 1 1 0.000000 26.017300 22.531775 17.924999 # CH4 
20 1 1 0.000000 26.017300 22.531775 19.632999 # CH4 
21 1 1 0.000000 26.017300 22.531775 21.340000 # CH4 
22 1 1 0.000000 26.017300 22.531775 23.047001 # CH4 
23 1 1 0.000000 26.017300 22.531775 24.754000 # CH4 
24 1 1 0.000000 26.017300 22.531775 26.461000 # CH4 
25 1 1 0.000000 26.017300 22.531775 0.854000 # CH4 
26 1 1 0.000000 26.017300 22.531775 2.561000 # CH4 
27 1 1 0.000000 26.017300 22.531775 4.268000 # CH4 
28 1 1 0.000000 26.017300 22.531775 5.975000 # CH4 
29 1 1 0.000000 26.017300 22.531775 7.682000 # CH4 
30 1 1 0.000000 26.017300 22.531775 9.390000 # CH4 
31 1 1 0.000000 26.017300 22.531775 11.097000 # CH4 
32 1 1 0.000000 26.017300 22.531775 12.804000 # CH4 
33 1 1 0.000000 13.008301 45.062775 14.511001 # CH4 
34 1 1 0.000000 13.008301 45.062775 16.218000 # CH4 
35 1 1 0.000000 13.008301 45.062775 17.924999 # CH4 
36 1 1 0.000000 13.008301 45.062775 19.632999 # CH4 
37 1 1 0.000000 13.008301 45.062775 21.340000 # CH4 
38 1 1 0.000000 13.008301 45.062775 23.047001 # CH4 
39 1 1 0.000000 13.008301 45.062775 24.754000 # CH4 
40 1 1 0.000000 13.008301 45.062775 26.461000 # CH4 
41 1 1 0.000000 13.008301 45.062775 0.854000 # CH4 
42 1 1 0.000000 13.008301 45.062775 2.561000 # CH4 
43 1 1 0.000000 13.008301 45.062775 4.268000 # CH4 
44 1 1 0.000000 13.008301 45.062775 5.975000 # CH4 
45 1 1 0.000000 13.008301 45.062775 7.682000 # CH4 
46 1 1 0.000000 13.008301 45.062775 9.390000 # CH4 
47 1 1 0.000000 13.008301 45.062775 11.097000 # CH4 
48 1 1 0.000000 13.008301 45.062775 12.804000 # CH4 
49 1 1 0.000000 13.008301 22.531775 14.511001 # CH4 
50 1 1 0.000000 13.008301 22.531775 16.218000 # CH4 
51 1 1 0.000000 13.008301 22.531775 17.924999 # CH4 
52 1 1 0.000000 13.008301 22.531775 19.632999 # CH4 
53 1 1 0.000000 13.008301 22.531775 21.340000 # CH4 
54 1 1 0.000000 13.008301 22.531775 23.047001 # CH4 
55 1 1 0.000000 13.008301 22.531775 24.754000 # CH4 
56 1 1 0.000000 13.008301 22.531775 26.461000 # CH4 
57 1 1 0.000000 13.008301 22.531775 0.854000 # CH4 
58 1 1 0.000000 13.008301 22.531775 2.561000 # CH4 
59 1 1 0.000000 13.008301 22.531775 4.268000 # CH4 
60 1 1 0.000000 13.008301 22.531775 5.975000 # CH4 
61 1 1 0.000000 13.008301 22.531775 7.682000 # CH4 
62 1 1 0.000000 13.008301 22.531775 9.390000 # CH4 
63 1 1 0.000000 13.008301 22.531775 11.097000 # CH4 
64 1 9 0.000000 23.941000 21.823999 20.945980 # Ob LIG
65 2 9 0.000000 10.932000 44.355999 20.945980 # Ob LIG
66 3 9 0.000000 23.941000 6.803000 23.221979 # Ob LIG
67 4 9 0.000000 10.932000 29.334000 23.221979 # Ob LIG
68 5 10 0.000000 23.514999 7.995000 20.491980 # Oc LIG
69 6 10 0.000000 10.506000 30.527000 20.491980 # Oc LIG
70 1 8 0.000000 22.554001 7.442000 18.022980 # Oa LIG
71 2 8 0.000000 9.546000 29.973000 18.022980 # Oa LIG
72 1 8 0.000000 22.554001 22.462999 22.575979 # Oa LIG
73 2 8 0.000000 9.546000 44.993999 22.575979 # Oa LIG
74 3 8 0.000000 21.304001 8.301000 22.575979 # Oa LIG
75 4 8 0.000000 8.295000 30.833000 22.575979 # Oa LIG
76 3 9 0.000000 21.164000 9.821000 20.945980 # Ob LIG
77 4 9 0.000000 8.155000 32.353001 20.945980 # Ob LIG
78 7 10 0.000000 21.184000 20.701000 20.491980 # Oc LIG
79 8 10 0.000000 8.176000 43.233002 20.491980 # Oc LIG
80 3 8 0.000000 21.184999 21.809999 18.022980 # Oa LIG
81 2 8 0.000000 8.176000 44.341000 18.022980 # Oa LIG
82 1 9 0.000000 19.938000 20.927999 23.221979 # Ob LIG
83 2 9 0.000000 6.930000 43.459999 23.221979 # Ob LIG
84 9 9 0.000000 19.087999 16.624001 22.302979 # Ob LIG
85 10 9 0.000000 6.079000 39.155998 22.302979 # Ob LIG
86 11 10 0.000000 18.681999 13.676000 22.756979 # Oc LIG
87 12 10 0.000000 5.673000 36.207001 22.756979 # Oc LIG
88 9 8 0.000000 17.841000 15.743000 20.672979 # Oa LIG
89 10 8 0.000000 4.833000 38.275002 20.672979 # Oa LIG
90 13 10 0.000000 17.841999 16.851000 18.204979 # Oc LIG
91 14 10 0.000000 4.833000 39.382999 18.204979 # Oc LIG
92 15 10 0.000000 10.506000 0.485000 18.214979 # Oc LIG
93 4 10 0.000000 23.514999 23.017000 18.214979 # Oc LIG
94 16 10 0.000000 10.506000 15.506000 22.767979 # Oc LIG
95 17 10 0.000000 23.514999 38.036999 22.767979 # Oc LIG
96 18 9 0.000000 10.932000 14.313000 18.668980 # Ob LIG
97 19 9 0.000000 23.941000 36.845001 18.668980 # Ob LIG
98 20 9 0.000000 15.085000 0.708000 20.026979 # Ob LIG
99 21 9 0.000000 2.076000 23.239000 20.026979 # Ob LIG
100 22 9 0.000000 15.085000 15.729000 17.750980 # Ob LIG
101 23 9 0.000000 2.077000 38.259998 17.750980 # Ob LIG
102 24 10 0.000000 15.511000 14.536000 20.480980 # Oc LIG
103 25 10 0.000000 2.503000 37.068001 20.480980 # Oc LIG
104 5 8 0.000000 16.471001 15.090000 22.948978 # Oa LIG
105 6 8 0.000000 3.463000 37.620998 22.948978 # Oa LIG
106 20 8 0.000000 16.471001 0.069000 18.396980 # Oa LIG
107 21 8 0.000000 3.463000 22.601000 18.396980 # Oa LIG
108 22 8 0.000000 17.722000 14.230000 18.396980 # Oa LIG
109 23 8 0.000000 4.713000 36.762001 18.396980 # Oa LIG
110 22 9 0.000000 17.862000 12.710000 20.026979 # Ob LIG
111 23 9 0.000000 4.853000 35.242001 20.026979 # Ob LIG
112 26 10 0.000000 17.841000 1.831000 20.480980 # Oc LIG
113 27 10 0.000000 4.833000 24.362000 20.480980 # Oc LIG
114 20 8 0.000000 17.841000 0.722000 22.948978 # Oa LIG
115 28 8 0.000000 4.833000 23.254000 22.948978 # Oa LIG
116 20 9 0.000000 19.087000 1.603000 17.750980 # Ob LIG
117 21 9 0.000000 6.079000 24.135000 17.750980 # Ob LIG
118 28 9 0.000000 19.938000 5.907000 18.668980 # Ob LIG
119 28 9 0.000000 6.930000 28.438999 18.668980 # Ob LIG
120 28 9 0.000000 2.076000 8.218000 22.302979 # Ob LIG
121 28 9 0.000000 15.085000 30.750000 22.302979 # Ob LIG
122 28 10 0.000000 2.503000 7.026000 18.204979 # Oc LIG
123 28 10 0.000000 15.511000 29.556999 18.204979 # Oc LIG
124 28 10 0.000000 2.503000 22.047001 22.756979 # Oc LIG
125 28 10 0.000000 15.511000 44.577999 22.756979 # Oc LIG
126 28 10 0.000000 20.344000 8.856000 18.215981 # Oc LIG
127 28 10 0.000000 7.336000 31.388000 18.215981 # Oc LIG
128 28 8 0.000000 21.184999 6.789000 20.299980 # Oa LIG
129 28 8 0.000000 8.176000 29.320000 20.299980 # Oa LIG
130 28 10 0.000000 21.184000 5.680000 22.767979 # Oc LIG
131 28 10 0.000000 8.176000 28.212000 22.767979 # Oc LIG
132 28 8 0.000000 3.463000 7.579000 20.672979 # Oa LIG
133 28 8 0.000000 16.471001 30.111000 20.672979 # Oa LIG
134 28 8 0.000000 4.713000 6.720000 22.948978 # Oa LIG
135 28 8 0.000000 17.722000 29.250999 22.948978 # Oa LIG
136 28 8 0.000000 4.713000 21.740999 20.672979 # Oa LIG
137 28 8 0.000000 17.722000 44.271999 20.672979 # Oa LIG
138 28 9 0.000000 4.853000 5.200000 17.750980 # Ob LIG
139 28 9 0.000000 17.862000 27.731001 17.750980 # Ob LIG
140 28 9 0.000000 4.853000 20.221001 22.302979 # Ob LIG
141 28 9 0.000000 17.862000 42.751999 22.302979 # Ob LIG
142 28 10 0.000000 4.833000 9.341000 22.756979 # Oc LIG
143 28 10 0.000000 17.841000 31.872999 22.756979 # Oc LIG
144 28 8 0.000000 4.833000 8.232000 18.396980 # Oa LIG
145 28 8 0.000000 17.841000 30.764000 18.396980 # Oa LIG
146 28 10 0.000000 5.673000 6.165000 20.480980 # Oc LIG
147 28 10 0.000000 18.681999 28.697001 20.480980 # Oc LIG
148 28 10 0.000000 5.673000 21.186001 18.204979 # Oc LIG
149 28 10 0.000000 18.681000 43.717999 18.204979 # Oc LIG
150 28 9 0.000000 6.079000 9.114000 20.026979 # Ob LIG
151 28 9 0.000000 19.087000 31.645000 20.026979 # Ob LIG
152 28 9 0.000000 6.930000 13.418000 20.945980 # Ob LIG
153 28 9 0.000000 19.938000 35.949001 20.945980 # Ob LIG
154 28 10 0.000000 7.336000 1.345000 22.767979 # Oc LIG
155 28 10 0.000000 20.344000 23.877001 22.767979 # Oc LIG
156 28 10 0.000000 7.336000 16.365999 20.491980 # Oc LIG
157 28 10 0.000000 20.344000 38.897999 20.491980 # Oc LIG
158 28 8 0.000000 8.176000 14.299000 22.575979 # Oa LIG
159 28 8 0.000000 21.184999 36.831001 22.575979 # Oa LIG
160 28 10 0.000000 8.176000 13.190000 18.214979 # Oc LIG
161 28 10 0.000000 21.184000 35.722000 18.214979 # Oc LIG
162 28 9 0.000000 8.155000 2.311000 18.668980 # Ob LIG
163 28 9 0.000000 21.164000 24.841999 18.668980 # Ob LIG
164 28 9 0.000000 8.155000 17.332001 23.221979 # Ob LIG
165 28 9 0.000000 21.164000 39.862999 23.221979 # Ob LIG
166 28 8 0.000000 8.296000 0.791000 20.299980 # Oa LIG
167 28 8 0.000000 21.304001 23.322001 20.299980 # Oa LIG
168 28 8 0.000000 8.295000 15.812000 18.022980 # Oa LIG
169 28 8 0.000000 21.304001 38.342999 18.022980 # Oa LIG
170 18 8 0.000000 9.546000 14.952000 20.299980 # Oa LIG
171 19 8 0.000000 22.554001 37.484001 20.299980 # Oa LIG
172 5 5 0.000000 25.868000 7.878000 20.672979 # Cd LIG
173 6 5 0.000000 12.860000 30.409000 20.672979 # Cd LIG
174 5 3 0.000000 24.879999 7.373000 18.527981 # Cb LIG
175 28 3 0.000000 11.871000 29.905001 18.527981 # Cb LIG
176 1 3 0.000000 24.879999 22.393999 23.080978 # Cb LIG
177 28 3 0.000000 11.871000 44.925999 23.080978 # Cb LIG
178 5 4 0.000000 24.708000 7.749000 19.900980 # Cc LIG
179 6 4 0.000000 11.699000 30.280001 19.900980 # Cc LIG
180 1 2 0.000000 23.745001 22.209999 22.137980 # Ca LIG
181 2 2 0.000000 10.736000 44.741001 22.137980 # Ca LIG
182 1 2 0.000000 23.745001 7.188000 17.585979 # Ca LIG
183 2 2 0.000000 10.736000 29.719999 17.585979 # Ca LIG
184 3 2 0.000000 20.927999 9.459000 22.137980 # Ca LIG
185 4 2 0.000000 7.919000 31.990999 22.137980 # Ca LIG
186 7 4 0.000000 20.374001 19.791000 19.900980 # Cc LIG
187 8 4 0.000000 7.365000 42.323002 19.900980 # Cc LIG
188 3 2 0.000000 20.370001 20.905001 17.585979 # Ca LIG
189 2 2 0.000000 7.361000 43.437000 17.585979 # Ca LIG
190 11 3 0.000000 20.201000 10.350000 23.080978 # Cb LIG
191 12 3 0.000000 7.192000 32.881001 23.080978 # Cb LIG
192 13 3 0.000000 19.962999 19.830000 18.527981 # Cb LIG
193 14 3 0.000000 6.954000 42.362000 18.527981 # Cb LIG
194 7 5 0.000000 19.905001 18.722000 20.672979 # Cd LIG
195 8 5 0.000000 6.897000 41.252998 20.672979 # Cd LIG
196 11 5 0.000000 19.757000 11.578000 22.575979 # Cd LIG
197 12 5 0.000000 6.749000 34.110001 22.575979 # Cd LIG
198 13 5 0.000000 19.120001 18.830999 18.022980 # Cd LIG
199 14 5 0.000000 6.112000 41.362999 18.022980 # Cd LIG
200 7 3 0.000000 19.063000 17.723000 20.167980 # Cb LIG
201 8 3 0.000000 6.055000 40.254002 20.167980 # Cb LIG
202 11 4 0.000000 19.065001 12.519000 23.347980 # Cc LIG
203 12 4 0.000000 6.056000 35.050999 23.347980 # Cc LIG
204 9 2 0.000000 18.656000 16.646999 21.110979 # Ca LIG
205 10 2 0.000000 5.647000 39.179001 21.110979 # Ca LIG
206 13 4 0.000000 18.652000 17.761000 18.795979 # Cc LIG
207 14 4 0.000000 5.643000 40.292999 18.795979 # Cc LIG
208 28 5 0.000000 0.149000 7.143000 18.022980 # Cd LIG
209 28 5 0.000000 13.157000 29.674999 18.022980 # Cd LIG
210 28 5 0.000000 0.149000 22.164000 22.575979 # Cd LIG
211 28 5 0.000000 13.157000 44.695999 22.575979 # Cd LIG
212 28 3 0.000000 1.137000 7.648000 20.167980 # Cb LIG
213 6 3 0.000000 14.146000 30.179001 20.167980 # Cb LIG
214 28 4 0.000000 1.309000 22.292999 23.347980 # Cc LIG
215 28 4 0.000000 14.318000 44.825001 23.347980 # Cc LIG
216 28 4 0.000000 1.309000 7.272000 18.795979 # Cc LIG
217 28 4 0.000000 14.318000 29.804001 18.795979 # Cc LIG
218 18 2 0.000000 10.736000 14.699000 19.861980 # Ca LIG
219 19 2 0.000000 23.745001 37.230000 19.861980 # Ca LIG
220 16 4 0.000000 11.699000 15.259000 22.176979 # Cc LIG
221 17 4 0.000000 24.708000 37.791000 22.176979 # Cc LIG
222 15 4 0.000000 11.699000 0.238000 17.624979 # Cc LIG
223 4 4 0.000000 24.708000 22.770000 17.624979 # Cc LIG
224 24 3 0.000000 11.871000 14.884000 20.804979 # Cb LIG
225 17 3 0.000000 24.879999 37.415001 20.804979 # Cb LIG
226 15 5 0.000000 12.860000 0.367000 18.396980 # Cd LIG
227 4 5 0.000000 25.868999 22.899000 18.396980 # Cd LIG
228 16 5 0.000000 12.860000 15.388000 22.949980 # Cd LIG
229 17 5 0.000000 25.868000 37.919998 22.949980 # Cd LIG
230 24 5 0.000000 13.157000 14.654000 20.299980 # Cd LIG
231 25 5 0.000000 0.149000 37.185001 20.299980 # Cd LIG
232 16 3 0.000000 14.146000 15.158000 22.443979 # Cb LIG
233 25 3 0.000000 1.137000 37.689999 22.443979 # Cb LIG
234 15 3 0.000000 14.146000 0.137000 17.891979 # Cb LIG
235 21 3 0.000000 1.137000 22.669001 17.891979 # Cb LIG
236 24 4 0.000000 14.318000 14.783000 21.071980 # Cc LIG
237 25 4 0.000000 1.309000 37.313999 21.071980 # Cc LIG
238 20 2 0.000000 15.281000 0.322000 18.834980 # Ca LIG
239 21 2 0.000000 2.272000 22.854000 18.834980 # Ca LIG
240 5 2 0.000000 15.281000 15.343000 23.386980 # Ca LIG
241 6 2 0.000000 2.272000 37.875000 23.386980 # Ca LIG
242 22 2 0.000000 18.098000 13.072000 18.833981 # Ca LIG
243 23 2 0.000000 5.089000 35.604000 18.833981 # Ca LIG
244 26 4 0.000000 18.652000 2.740000 21.071980 # Cc LIG
245 27 4 0.000000 5.643000 25.271999 21.071980 # Cc LIG
246 20 2 0.000000 18.656000 1.626000 23.386980 # Ca LIG
247 28 2 0.000000 5.647000 24.158001 23.386980 # Ca LIG
248 28 3 0.000000 18.825001 12.182000 17.891979 # Cb LIG
249 28 3 0.000000 5.816000 34.714001 17.891979 # Cb LIG
250 28 3 0.000000 19.063000 2.701000 22.443979 # Cb LIG
251 28 3 0.000000 6.055000 25.233000 22.443979 # Cb LIG
252 26 5 0.000000 19.120001 3.810000 20.299980 # Cd LIG
253 27 5 0.000000 6.111000 26.341999 20.299980 # Cd LIG
254 28 5 0.000000 19.268999 10.953000 18.396980 # Cd LIG
255 28 5 0.000000 6.260000 33.485001 18.396980 # Cd LIG
256 28 5 0.000000 19.906000 3.700000 22.948978 # Cd LIG
257 28 5 0.000000 6.897000 26.232000 22.948978 # Cd LIG
258 28 2 0.000000 2.272000 7.833000 21.110979 # Ca LIG
259 28 2 0.000000 15.281000 30.364000 21.110979 # Ca LIG
260 26 3 0.000000 19.962000 4.809000 20.804979 # Cb LIG
261 27 3 0.000000 6.954000 27.341000 20.804979 # Cb LIG
262 28 4 0.000000 19.961000 10.013000 17.624979 # Cc LIG
263 28 4 0.000000 6.953000 32.543999 17.624979 # Cc LIG
264 28 2 0.000000 20.370001 5.884000 19.861980 # Ca LIG
265 28 2 0.000000 7.361000 28.416000 19.861980 # Ca LIG
266 28 4 0.000000 20.374001 4.770000 22.176979 # Cc LIG
267 28 4 0.000000 7.366000 27.302000 22.176979 # Cc LIG
268 28 2 0.000000 5.089000 5.562000 23.386980 # Ca LIG
269 28 2 0.000000 18.098000 28.093000 23.386980 # Ca LIG
270 28 2 0.000000 5.089000 20.583000 21.110979 # Ca LIG
271 28 2 0.000000 18.098000 43.115002 21.110979 # Ca LIG
272 28 4 0.000000 5.643000 10.251000 23.347980 # Cc LIG
273 28 4 0.000000 18.652000 32.783001 23.347980 # Cc LIG
274 28 2 0.000000 5.647000 9.137000 18.834980 # Ca LIG
275 28 2 0.000000 18.656000 31.667999 18.834980 # Ca LIG
276 28 3 0.000000 5.816000 4.671000 22.443979 # Cb LIG
277 28 3 0.000000 18.825001 27.202999 22.443979 # Cb LIG
278 28 3 0.000000 5.817000 19.693001 20.167980 # Cb LIG
279 28 3 0.000000 18.825001 42.223999 20.167980 # Cb LIG
280 28 4 0.000000 6.056000 5.008000 21.071980 # Cc LIG
281 28 4 0.000000 19.065001 27.540001 21.071980 # Cc LIG
282 28 4 0.000000 6.056000 20.028999 18.795979 # Cc LIG
283 28 4 0.000000 19.063999 42.561001 18.795979 # Cc LIG
284 28 3 0.000000 6.055000 10.212000 17.891979 # Cb LIG
285 28 3 0.000000 19.063000 32.743000 17.891979 # Cb LIG
286 28 5 0.000000 6.111000 11.321000 22.575979 # Cd LIG
287 28 5 0.000000 19.120001 33.852001 22.575979 # Cd LIG
288 28 5 0.000000 6.260000 3.443000 22.948978 # Cd LIG
289 28 5 0.000000 19.268999 25.974001 22.948978 # Cd LIG
290 28 5 0.000000 6.261000 18.464001 20.672979 # Cd LIG
291 28 5 0.000000 19.268999 40.994999 20.672979 # Cd LIG
292 28 5 0.000000 6.748000 4.068000 20.299980 # Cd LIG
293 28 5 0.000000 19.757000 26.599001 20.299980 # Cd LIG
294 28 5 0.000000 6.748000 19.089001 18.022980 # Cd LIG
295 28 5 0.000000 19.757000 41.619999 18.022980 # Cd LIG
296 28 5 0.000000 6.897000 11.211000 18.396980 # Cd LIG
297 28 5 0.000000 19.906000 33.742001 18.396980 # Cd LIG
298 28 3 0.000000 6.954000 12.320000 23.080978 # Cb LIG
299 28 3 0.000000 19.962000 34.851002 23.080978 # Cb LIG
300 28 4 0.000000 6.953000 2.502000 22.176979 # Cc LIG
301 28 4 0.000000 19.961000 25.034000 22.176979 # Cc LIG
302 28 4 0.000000 6.953000 17.523001 19.900980 # Cc LIG
303 28 4 0.000000 19.961000 40.055000 19.900980 # Cc LIG
304 28 3 0.000000 7.192000 2.839000 20.804979 # Cb LIG
305 28 3 0.000000 20.201000 25.371000 20.804979 # Cb LIG
306 28 3 0.000000 7.192000 17.860001 18.527981 # Cb LIG
307 28 3 0.000000 20.201000 40.390999 18.527981 # Cb LIG
308 28 2 0.000000 7.361000 13.395000 22.137980 # Ca LIG
309 28 2 0.000000 20.370001 35.925999 22.137980 # Ca LIG
310 28 4 0.000000 7.366000 12.281000 17.624979 # Cc LIG
311 28 4 0.000000 20.374001 34.812000 17.624979 # Cc LIG
312 28 2 0.000000 7.919000 1.949000 19.861980 # Ca LIG
313 28 2 0.000000 20.927999 24.480000 19.861980 # Ca LIG
314 28 2 0.000000 7.919000 16.969999 17.585979 # Ca LIG
315 28 2 0.000000 20.927999 39.500999 17.585979 # Ca LIG
316 5 6 0.000000 25.764999 8.173000 21.715981 # H LIG
317 6 6 0.000000 12.756000 30.704000 21.715981 # H LIG
318 7 6 0.000000 20.212999 18.664000 21.715981 # H LIG
319 8 6 0.000000 7.204000 41.195999 21.715981 # H LIG
320 11 6 0.000000 19.961000 11.816000 21.532980 # H LIG
321 12 6 0.000000 6.952000 34.347000 21.532980 # H LIG
322 29 6 0.000000 18.813000 18.889000 23.808979 # H LIG
323 30 6 0.000000 5.805000 41.419998 23.808979 # H LIG
324 31 6 0.000000 0.252000 6.849000 23.808979 # H LIG
325 32 6 0.000000 13.261000 29.379999 23.808979 # H LIG
326 28 6 0.000000 0.252000 21.870001 21.532980 # H LIG
327 28 6 0.000000 13.261000 44.401001 21.532980 # H LIG
328 15 6 0.000000 12.756000 0.662000 19.439980 # H LIG
329 4 6 0.000000 25.764999 23.194000 19.439980 # H LIG
330 33 6 0.000000 12.756000 15.683000 17.163979 # H LIG
331 34 6 0.000000 25.764999 38.215000 17.163979 # H LIG
332 24 6 0.000000 13.261000 14.359000 19.255980 # H LIG
333 25 6 0.000000 0.252000 36.890999 19.255980 # H LIG
334 26 6 0.000000 18.813000 3.868000 19.256979 # H LIG
335 27 6 0.000000 5.804000 26.399000 19.256979 # H LIG
336 28 6 0.000000 19.065001 10.716000 19.439980 # H LIG
337 28 6 0.000000 6.057000 33.248001 19.439980 # H LIG
338 35 6 0.000000 20.212999 3.643000 17.163979 # H LIG
339 36 6 0.000000 7.204000 26.174000 17.163979 # H LIG
340 28 6 0.000000 5.804000 11.378000 21.532980 # H LIG
341 28 6 0.000000 18.813000 33.910000 21.532980 # H LIG
342 37 6 0.000000 6.057000 3.205000 17.163979 # H LIG
343 38 6 0.000000 19.065001 25.737000 17.163979 # H LIG
344 28 6 0.000000 6.057000 18.226999 21.715981 # H LIG
345 28 6 0.000000 19.066000 40.757999 21.715981 # H LIG
346 28 6 0.000000 6.952000 4.305000 19.256979 # H LIG
347 28 6 0.000000 19.959999 26.837000 19.256979 # H LIG
348 39 6 0.000000 6.951000 19.326000 23.808979 # H LIG
349 40 6 0.000000 19.959999 41.856998 23.808979 # H LIG
350 28 6 0.000000 7.204000 11.153000 19.439980 # H LIG
351 28 6 0.000000 20.212999 33.685001 19.439980 # H LIG
352 28 7 0.000000 22.488001 21.886000 19.548981 # Ni LIG
353 2 7 0.000000 9.479000 44.417999 19.548981 # Ni LIG
354 1 7 0.000000 20.719000 22.156000 21.825979 # Ni LIG
355 2 7 0.000000 7.710000 44.687000 21.825979 # Ni LIG
356 41 7 0.000000 8.828000 1.021000 17.272980 # Ni LIG
357 3 7 0.000000 21.837000 23.552999 17.272980 # Ni LIG
358 20 7 0.000000 16.538000 0.645000 21.423981 # Ni LIG
359 28 7 0.000000 3.529000 23.177000 21.423981 # Ni LIG
360 20 7 0.000000 18.306999 0.376000 19.147980 # Ni LIG
361 21 7 0.000000 5.299000 22.908001 19.147980 # Ni LIG
362 28 7 0.000000 4.181000 21.510000 23.699980 # Ni LIG
363 42 7 0.000000 17.188999 44.042000 23.699980 # Ni LIG
364 3 7 0.000000 22.488001 6.865000 21.824980 # Ni LIG
365 4 7 0.000000 9.479000 29.396999 21.824980 # Ni LIG
366 28 7 0.000000 21.837000 8.532000 19.548981 # Ni LIG
367 28 7 0.000000 8.828000 31.063000 19.548981 # Ni LIG
368 1 7 0.000000 20.718000 7.135000 17.272980 # Ni LIG
369 2 7 0.000000 7.710000 29.666000 17.272980 # Ni LIG
370 28 7 0.000000 3.529000 8.156000 23.699980 # Ni LIG
371 28 7 0.000000 16.538000 30.688000 23.699980 # Ni LIG
372 28 7 0.000000 4.180000 6.489000 19.147980 # Ni LIG
373 28 7 0.000000 17.188999 29.021000 19.147980 # Ni LIG
374 28 7 0.000000 5.299000 7.886000 21.423981 # Ni LIG
375 28 7 0.000000 18.306999 30.417999 21.423981 # Ni LIG
376 18 7 0.000000 7.710000 14.645000 19.548981 # Ni LIG
377 19 7 0.000000 20.719000 37.176998 19.548981 # Ni LIG
378 28 7 0.000000 8.828000 16.042000 21.824980 # Ni LIG
379 28 7 0.000000 21.837000 38.574001 21.824980 # Ni LIG
380 28 7 0.000000 9.479000 14.375000 17.272980 # Ni LIG
381 28 7 0.000000 22.488001 36.907001 17.272980 # Ni LIG
382 5 7 0.000000 18.306999 15.397000 23.699980 # Ni LIG
383 6 7 0.000000 5.299000 37.929001 23.699980 # Ni LIG
384 22 7 0.000000 16.538000 15.666000 19.146980 # Ni LIG
385 23 7 0.000000 3.529000 38.198002 19.146980 # Ni LIG
386 9 7 0.000000 17.188999 14.000000 21.423981 # Ni LIG
387 10 7 0.000000 4.180000 36.530998 21.423981 # Ni LIG
388 1 9 0.000000 23.941000 21.823999 0.459500 # Ob LIG
389 2 9 0.000000 10.932000 44.355999 0.459500 # Ob LIG
390 3 9 0.000000 23.941000 6.803000 2.735500 # Ob LIG
391 4 9 0.000000 10.932000 29.334000 2.735500 # Ob LIG
392 5 10 0.000000 23.514999 7.995000 0.005500 # Oc LIG
393 6 10 0.000000 10.506000 30.527000 0.005500 # Oc LIG
394 1 8 0.000000 22.554001 7.442000 24.851978 # Oa LIG
395 2 8 0.000000 9.546000 29.973000 24.851978 # Oa LIG
396 1 8 0.000000 22.554001 22.462999 2.089500 # Oa LIG
397 2 8 0.000000 9.546000 44.993999 2.089500 # Oa LIG
398 3 8 0.000000 21.304001 8.301000 2.089500 # Oa LIG
399 4 8 0.000000 8.295000 30.833000 2.089500 # Oa LIG
400 3 9 0.000000 21.164000 9.821000 0.459500 # Ob LIG
401 4 9 0.000000 8.155000 32.353001 0.459500 # Ob LIG
402 7 10 0.000000 21.184000 20.701000 0.005500 # Oc LIG
403 8 10 0.000000 8.176000 43.233002 0.005500 # Oc LIG
404 3 8 0.000000 21.184999 21.809999 24.851978 # Oa LIG
405 2 8 0.000000 8.176000 44.341000 24.851978 # Oa LIG
406 1 9 0.000000 19.938000 20.927999 2.735500 # Ob LIG
407 2 9 0.000000 6.930000 43.459999 2.735500 # Ob LIG
408 9 9 0.000000 19.087999 16.624001 1.816500 # Ob LIG
409 10 9 0.000000 6.079000 39.155998 1.816500 # Ob LIG
410 11 10 0.000000 18.681999 13.676000 2.270500 # Oc LIG
411 12 10 0.000000 5.673000 36.207001 2.270500 # Oc LIG
412 9 8 0.000000 17.841000 15.743000 0.186500 # Oa LIG
413 10 8 0.000000 4.833000 38.275002 0.186500 # Oa LIG
414 13 10 0.000000 17.841999 16.851000 25.033979 # Oc LIG
415 14 10 0.000000 4.833000 39.382999 25.033979 # Oc LIG
416 15 10 0.000000 10.506000 0.485000 25.043980 # Oc LIG
417 4 10 0.000000 23.514999 23.017000 25.043980 # Oc LIG
418 16 10 0.000000 10.506000 15.506000 2.281500 # Oc LIG
419 17 10 0.000000 23.514999 38.036999 2.281500 # Oc LIG
420 18 9 0.000000 10.932000 14.313000 25.497980 # Ob LIG
421 19 9 0.000000 23.941000 36.845001 25.497980 # Ob LIG
422 20 9 0.000000 15.085000 0.708000 26.855980 # Ob LIG
423 21 9 0.000000 2.076000 23.239000 26.855980 # Ob LIG
424 22 9 0.000000 15.085000 15.729000 24.579979 # Ob LIG
425 23 9 0.000000 2.077000 38.259998 24.579979 # Ob LIG
426 24 10 0.000000 15.511000 14.536000 27.309978 # Oc LIG
427 25 10 0.000000 2.503000 37.068001 27.309978 # Oc LIG
428 5 8 0.000000 16.471001 15.090000 2.462500 # Oa LIG
429 6 8 0.000000 3.463000 37.620998 2.462500 # Oa LIG
430 20 8 0.000000 16.471001 0.069000 25.225979 # Oa LIG
431 21 8 0.000000 3.463000 22.601000 25.225979 # Oa LIG
432 22 8 0.000000 17.722000 14.230000 25.225979 # Oa LIG
433 23 8 0.000000 4.713000 36.762001 25.225979 # Oa LIG
434 22 9 0.000000 17.862000 12.710000 26.855980 # Ob LIG
435 23 9 0.000000 4.853000 35.242001 26.855980 # Ob LIG
436 26 10 0.000000 17.841000 1.831000 27.309978 # Oc LIG
437 27 10 0.000000 4.833000 24.362000 27.309978 # Oc LIG
438 20 8 0.000000 17.841000 0.722000 2.462500 # Oa LIG
439 28 8 0.000000 4.833000 23.254000 2.462500 # Oa LIG
440 20 9 0.000000 19.087000 1.603000 24.579979 # Ob LIG
441 21 9 0.000000 6.079000 24.135000 24.579979 # Ob LIG
442 28 9 0.000000 19.938000 5.907000 25.497980 # Ob LIG
443 28 9 0.000000 6.930000 28.438999 25.497980 # Ob LIG
444 28 9 0.000000 2.076000 8.218000 1.816500 # Ob LIG
445 28 9 0.000000 15.085000 30.750000 1.816500 # Ob LIG
446 28 10 0.000000 2.503000 7.026000 25.033979 # Oc LIG
447 28 10 0.000000 15.511000 29.556999 25.033979 # Oc LIG
448 28 10 0.000000 2.503000 22.047001 2.270500 # Oc LIG
449 28 10 0.000000 15.511000 44.577999 2.270500 # Oc LIG
450 28 10 0.000000 20.344000 8.856000 25.044979 # Oc LIG
451 28 10 0.000000 7.336000 31.388000 25.044979 # Oc LIG
452 28 8 0.000000 21.184999 6.789000 27.128979 # Oa LIG
453 28 8 0.000000 8.176000 29.320000 27.128979 # Oa LIG
454 28 10 0.000000 21.184000 5.680000 2.281500 # Oc LIG
455 28 10 0.000000 8.176000 28.212000 2.281500 # Oc LIG
456 28 8 0.000000 3.463000 7.579000 0.186500 # Oa LIG
457 28 8 0.000000 16.471001 30.111000 0.186500 # Oa LIG
458 28 8 0.000000 4.713000 6.720000 2.462500 # Oa LIG
459 28 8 0.000000 17.722000 29.250999 2.462500 # Oa LIG
460 28 8 0.000000 4.713000 21.740999 0.186500 # Oa LIG
461 28 8 0.000000 17.722000 44.271999 0.186500 # Oa LIG
462 28 9 0.000000 4.853000 5.200000 24.579979 # Ob LIG
463 28 9 0.000000 17.862000 27.731001 24.579979 # Ob LIG
464 28 9 0.000000 4.853000 20.221001 1.816500 # Ob LIG
465 28 9 0.000000 17.862000 42.751999 1.816500 # Ob LIG
466 28 10 0.000000 4.833000 9.341000 2.270500 # Oc LIG
467 28 10 0.000000 17.841000 31.872999 2.270500 # Oc LIG
468 28 8 0.000000 4.833000 8.232000 25.225979 # Oa LIG
469 28 8 0.000000 17.841000 30.764000 25.225979 # Oa LIG
470 28 10 0.000000 5.673000 6.165000 27.309978 # Oc LIG
471 28 10 0.000000 18.681999 28.697001 27.309978 # Oc LIG
472 28 10 0.000000 5.673000 21.186001 25.033979 # Oc LIG
473 28 10 0.000000 18.681000 43.717999 25.033979 # Oc LIG
474 28 9 0.000000 6.079000 9.114000 26.855980 # Ob LIG
475 28 9 0.000000 19.087000 31.645000 26.855980 # Ob LIG
476 28 9 0.000000 6.930000 13.418000 0.459500 # Ob LIG
477 28 9 0.000000 19.938000 35.949001 0.459500 # Ob LIG
478 28 10 0.000000 7.336000 1.345000 2.281500 # Oc LIG
479 28 10 0.000000 20.344000 23.877001 2.281500 # Oc LIG
480 28 10 0.000000 7.336000 16.365999 0.005500 # Oc LIG
481 28 10 0.000000 20.344000 38.897999 0.005500 # Oc LIG
482 28 8 0.000000 8.176000 14.299000 2.089500 # Oa LIG
483 28 8 0.000000 21.184999 36.831001 2.089500 # Oa LIG
484 28 10 0.000000 8.176000 13.190000 25.043980 # Oc LIG
485 28 10 0.000000 21.184000 35.722000 25.043980 # Oc LIG
486 28 9 0.000000 8.155000 2.311000 25.497980 # Ob LIG
487 28 9 0.000000 21.164000 24.841999 25.497980 # Ob LIG
488 28 9 0.000000 8.155000 17.332001 2.735500 # Ob LIG
489 28 9 0.000000 21.164000 39.862999 2.735500 # Ob LIG
490 28 8 0.000000 8.296000 0.791000 27.128979 # Oa LIG
491 28 8 0.000000 21.304001 23.322001 27.128979 # Oa LIG
492 28 8 0.000000 8.295000 15.812000 24.851978 # Oa LIG
493 28 8 0.000000 21.304001 38.342999 24.851978 # Oa LIG
494 18 8 0.000000 9.546000 14.952000 27.128979 # Oa LIG
495 19 8 0.000000 22.554001 37.484001 27.128979 # Oa LIG
496 5 5 0.000000 25.868000 7.878000 0.186500 # Cd LIG
497 6 5 0.000000 12.860000 30.409000 0.186500 # Cd LIG
498 5 3 0.000000 24.879999 7.373000 25.356979 # Cb LIG
499 28 3 0.000000 11.871000 29.905001 25.356979 # Cb LIG
500 1 3 0.000000 24.879999 22.393999 2.594500 # Cb LIG
501 28 3 0.000000 11.871000 44.925999 2.594500 # Cb LIG
502 5 4 0.000000 24.708000 7.749000 26.729979 # Cc LIG
503 6 4 0.000000 11.699000 30.280001 26.729979 # Cc LIG
504 1 2 0.000000 23.745001 22.209999 1.651500 # Ca LIG
505 2 2 0.000000 10.736000 44.741001 1.651500 # Ca LIG
506 1 2 0.000000 23.745001 7.188000 24.414980 # Ca LIG
507 2 2 0.000000 10.736000 29.719999 24.414980 # Ca LIG
508 3 2 0.000000 20.927999 9.459000 1.651500 # Ca LIG
509 4 2 0.000000 7.919000 31.990999 1.651500 # Ca LIG
510 7 4 0.000000 20.374001 19.791000 26.729979 # Cc LIG
511 8 4 0.000000 7.365000 42.323002 26.729979 # Cc LIG
512 3 2 0.000000 20.370001 20.905001 24.414980 # Ca LIG
513 2 2 0.000000 7.361000 43.437000 24.414980 # Ca LIG
514 11 3 0.000000 20.201000 10.350000 2.594500 # Cb LIG
515 12 3 0.000000 7.192000 32.881001 2.594500 # Cb LIG
516 13 3 0.000000 19.962999 19.830000 25.356979 # Cb LIG
517 14 3 0.000000 6.954000 42.362000 25.356979 # Cb LIG
518 7 5 0.000000 19.905001 18.722000 0.186500 # Cd LIG
519 8 5 0.000000 6.897000 41.252998 0.186500 # Cd LIG
520 11 5 0.000000 19.757000 11.578000 2.089500 # Cd LIG
521 12 5 0.000000 6.749000 34.110001 2.089500 # Cd LIG
522 13 5 0.000000 19.120001 18.830999 24.851978 # Cd LIG
523 14 5 0.000000 6.112000 41.362999 24.851978 # Cd LIG
524 7 3 0.000000 19.063000 17.723000 26.996979 # Cb LIG
525 8 3 0.000000 6.055000 40.254002 26.996979 # Cb LIG
526 11 4 0.000000 19.065001 12.519000 2.861500 # Cc LIG
527 12 4 0.000000 6.056000 35.050999 2.861500 # Cc LIG
528 9 2 0.000000 18.656000 16.646999 0.624500 # Ca LIG