LAMMPS data file. CGCMM style. atom_style full generated by VMD/TopoTools v1.5 on Sun Apr 09 10:59:52 PDT 2017
 1695 atoms
 266 bonds
 0 angles
 0 dihedrals
 0 impropers
 11 atom types
 1 bond types
 0 angle types
 0 dihedral types
 0 improper types
 0.444700 26.558700  xlo xhi
 0.314250 45.544250  ylo yhi
 0.212500 27.879500  zlo zhi

# Pair Coeffs
#
# 1  Ca
# 2  Cb
# 3  Cc
# 4  Cd
# 5  Cg
# 6  H
# 7  Mg
# 8  Oa
# 9  Ob
# 10  Oc
# 11  Og

 Masses

 1 12.011000 # Ca
 2 12.011000 # Cb
 3 12.011000 # Cc
 4 12.011000 # Cd
 5 12.011000 # Cg
 6 1.008000 # H
 7 24.305000 # Mg
 8 15.999000 # Oa
 9 15.999000 # Ob
 10 15.999000 # Oc
 11 15.999000 # Og

 Atoms

1 1 11 -0.325600 26.114401 45.230499 16.559999 # Og 
2 1 5 0.651200 26.114401 45.230499 15.400000 # Cg 
3 1 11 -0.325600 26.114401 45.230499 14.240000 # Og 
4 2 11 -0.325600 26.114401 45.230499 17.374001 # Og 
5 2 5 0.651200 26.114401 45.230499 16.214001 # Cg 
6 2 11 -0.325600 26.114401 45.230499 15.054000 # Og 
7 3 11 -0.325600 26.114401 45.230499 18.188000 # Og 
8 3 5 0.651200 26.114401 45.230499 17.028000 # Cg 
9 3 11 -0.325600 26.114401 45.230499 15.868000 # Og 
10 4 11 -0.325600 26.114401 45.230499 19.001999 # Og 
11 4 5 0.651200 26.114401 45.230499 17.841999 # Cg 
12 4 11 -0.325600 26.114401 45.230499 16.681999 # Og 
13 5 11 -0.325600 26.114401 45.230499 19.814999 # Og 
14 5 5 0.651200 26.114401 45.230499 18.654999 # Cg 
15 5 11 -0.325600 26.114401 45.230499 17.494999 # Og 
16 6 11 -0.325600 26.114401 45.230499 20.629000 # Og 
17 6 5 0.651200 26.114401 45.230499 19.469000 # Cg 
18 6 11 -0.325600 26.114401 45.230499 18.309000 # Og 
19 7 11 -0.325600 26.114401 45.230499 21.443001 # Og 
20 7 5 0.651200 26.114401 45.230499 20.283001 # Cg 
21 7 11 -0.325600 26.114401 45.230499 19.123001 # Og 
22 8 11 -0.325600 26.114401 45.230499 22.257000 # Og 
23 8 5 0.651200 26.114401 45.230499 21.097000 # Cg 
24 8 11 -0.325600 26.114401 45.230499 19.937000 # Og 
25 9 11 -0.325600 26.114401 45.230499 23.070000 # Og 
26 9 5 0.651200 26.114401 45.230499 21.910000 # Cg 
27 9 11 -0.325600 26.114401 45.230499 20.750000 # Og 
28 10 11 -0.325600 26.114401 45.230499 23.883999 # Og 
29 10 5 0.651200 26.114401 45.230499 22.723999 # Cg 
30 10 11 -0.325600 26.114401 45.230499 21.563999 # Og 
31 11 11 -0.325600 26.114401 45.230499 24.698000 # Og 
32 11 5 0.651200 26.114401 45.230499 23.538000 # Cg 
33 11 11 -0.325600 26.114401 45.230499 22.378000 # Og 
34 12 11 -0.325600 26.114401 45.230499 25.511000 # Og 
35 12 5 0.651200 26.114401 45.230499 24.351000 # Cg 
36 12 11 -0.325600 26.114401 45.230499 23.191000 # Og 
37 13 11 -0.325600 26.114401 45.230499 26.325001 # Og 
38 13 5 0.651200 26.114401 45.230499 25.164999 # Cg 
39 13 11 -0.325600 26.114401 45.230499 24.004999 # Og 
40 14 11 -0.325600 26.114401 45.230499 27.139000 # Og 
41 14 5 0.651200 26.114401 45.230499 25.979000 # Cg 
42 14 11 -0.325600 26.114401 45.230499 24.819000 # Og 
43 15 11 -0.325600 26.114401 45.230499 0.286000 # Og 
44 15 5 0.651200 26.114401 45.230499 26.792999 # Cg 
45 15 11 -0.325600 26.114401 45.230499 25.632999 # Og 
46 16 11 -0.325600 26.114401 45.230499 1.099000 # Og 
47 16 5 0.651200 26.114401 45.230499 27.605999 # Cg 
48 16 11 -0.325600 26.114401 45.230499 26.445999 # Og 
49 17 11 -0.325600 26.114401 45.230499 1.913000 # Og 
50 17 5 0.651200 26.114401 45.230499 0.753000 # Cg 
51 17 11 -0.325600 26.114401 45.230499 27.260000 # Og 
52 18 11 -0.325600 26.114401 45.230499 2.727000 # Og 
53 18 5 0.651200 26.114401 45.230499 1.567000 # Cg 
54 18 11 -0.325600 26.114401 45.230499 0.407000 # Og 
55 19 11 -0.325600 26.114401 45.230499 3.541000 # Og 
56 19 5 0.651200 26.114401 45.230499 2.381000 # Cg 
57 19 11 -0.325600 26.114401 45.230499 1.221000 # Og 
58 20 11 -0.325600 26.114401 45.230499 4.354000 # Og 
59 20 5 0.651200 26.114401 45.230499 3.194000 # Cg 
60 20 11 -0.325600 26.114401 45.230499 2.034000 # Og 
61 21 11 -0.325600 26.114401 45.230499 5.168000 # Og 
62 21 5 0.651200 26.114401 45.230499 4.008000 # Cg 
63 21 11 -0.325600 26.114401 45.230499 2.848000 # Og 
64 22 11 -0.325600 26.114401 45.230499 5.982000 # Og 
65 22 5 0.651200 26.114401 45.230499 4.822000 # Cg 
66 22 11 -0.325600 26.114401 45.230499 3.662000 # Og 
67 23 11 -0.325600 26.114401 45.230499 6.796000 # Og 
68 23 5 0.651200 26.114401 45.230499 5.636000 # Cg 
69 23 11 -0.325600 26.114401 45.230499 4.476000 # Og 
70 24 11 -0.325600 26.114401 45.230499 7.609000 # Og 
71 24 5 0.651200 26.114401 45.230499 6.449000 # Cg 
72 24 11 -0.325600 26.114401 45.230499 5.289000 # Og 
73 25 11 -0.325600 26.114401 45.230499 8.423000 # Og 
74 25 5 0.651200 26.114401 45.230499 7.263000 # Cg 
75 25 11 -0.325600 26.114401 45.230499 6.103000 # Og 
76 26 11 -0.325600 26.114401 45.230499 9.237000 # Og 
77 26 5 0.651200 26.114401 45.230499 8.077000 # Cg 
78 26 11 -0.325600 26.114401 45.230499 6.917000 # Og 
79 27 11 -0.325600 26.114401 45.230499 10.050000 # Og 
80 27 5 0.651200 26.114401 45.230499 8.890000 # Cg 
81 27 11 -0.325600 26.114401 45.230499 7.730000 # Og 
82 28 11 -0.325600 26.114401 45.230499 10.864000 # Og 
83 28 5 0.651200 26.114401 45.230499 9.704000 # Cg 
84 28 11 -0.325600 26.114401 45.230499 8.544000 # Og 
85 29 11 -0.325600 26.114401 45.230499 11.678000 # Og 
86 29 5 0.651200 26.114401 45.230499 10.518000 # Cg 
87 29 11 -0.325600 26.114401 45.230499 9.358000 # Og 
88 30 11 -0.325600 26.114401 45.230499 12.492000 # Og 
89 30 5 0.651200 26.114401 45.230499 11.332000 # Cg 
90 30 11 -0.325600 26.114401 45.230499 10.172000 # Og 
91 31 11 -0.325600 26.114401 45.230499 13.305000 # Og 
92 31 5 0.651200 26.114401 45.230499 12.145000 # Cg 
93 31 11 -0.325600 26.114401 45.230499 10.985000 # Og 
94 32 11 -0.325600 26.114401 45.230499 14.119000 # Og 
95 32 5 0.651200 26.114401 45.230499 12.959000 # Cg 
96 32 11 -0.325600 26.114401 45.230499 11.799000 # Og 
97 33 11 -0.325600 26.114401 45.230499 14.933000 # Og 
98 33 5 0.651200 26.114401 45.230499 13.773000 # Cg 
99 33 11 -0.325600 26.114401 45.230499 12.613000 # Og 
100 34 11 -0.325600 26.114401 45.230499 15.747000 # Og 
101 34 5 0.651200 26.114401 45.230499 14.587000 # Cg 
102 34 11 -0.325600 26.114401 45.230499 13.427000 # Og 
103 35 11 -0.325600 26.114401 22.614500 16.559999 # Og 
104 35 5 0.651200 26.114401 22.614500 15.400000 # Cg 
105 35 11 -0.325600 26.114401 22.614500 14.240000 # Og 
106 36 11 -0.325600 26.114401 22.614500 17.374001 # Og 
107 36 5 0.651200 26.114401 22.614500 16.214001 # Cg 
108 36 11 -0.325600 26.114401 22.614500 15.054000 # Og 
109 37 11 -0.325600 26.114401 22.614500 18.188000 # Og 
110 37 5 0.651200 26.114401 22.614500 17.028000 # Cg 
111 37 11 -0.325600 26.114401 22.614500 15.868000 # Og 
112 38 11 -0.325600 26.114401 22.614500 19.001999 # Og 
113 38 5 0.651200 26.114401 22.614500 17.841999 # Cg 
114 38 11 -0.325600 26.114401 22.614500 16.681999 # Og 
115 39 11 -0.325600 26.114401 22.614500 19.814999 # Og 
116 39 5 0.651200 26.114401 22.614500 18.654999 # Cg 
117 39 11 -0.325600 26.114401 22.614500 17.494999 # Og 
118 40 11 -0.325600 26.114401 22.614500 20.629000 # Og 
119 40 5 0.651200 26.114401 22.614500 19.469000 # Cg 
120 40 11 -0.325600 26.114401 22.614500 18.309000 # Og 
121 41 11 -0.325600 26.114401 22.614500 21.443001 # Og 
122 41 5 0.651200 26.114401 22.614500 20.283001 # Cg 
123 41 11 -0.325600 26.114401 22.614500 19.123001 # Og 
124 42 11 -0.325600 26.114401 22.614500 22.257000 # Og 
125 42 5 0.651200 26.114401 22.614500 21.097000 # Cg 
126 42 11 -0.325600 26.114401 22.614500 19.937000 # Og 
127 43 11 -0.325600 26.114401 22.614500 23.070000 # Og 
128 43 5 0.651200 26.114401 22.614500 21.910000 # Cg 
129 43 11 -0.325600 26.114401 22.614500 20.750000 # Og 
130 44 11 -0.325600 26.114401 22.614500 23.883999 # Og 
131 44 5 0.651200 26.114401 22.614500 22.723999 # Cg 
132 44 11 -0.325600 26.114401 22.614500 21.563999 # Og 
133 45 11 -0.325600 26.114401 22.614500 24.698000 # Og 
134 45 5 0.651200 26.114401 22.614500 23.538000 # Cg 
135 45 11 -0.325600 26.114401 22.614500 22.378000 # Og 
136 46 11 -0.325600 26.114401 22.614500 25.511000 # Og 
137 46 5 0.651200 26.114401 22.614500 24.351000 # Cg 
138 46 11 -0.325600 26.114401 22.614500 23.191000 # Og 
139 47 11 -0.325600 26.114401 22.614500 26.325001 # Og 
140 47 5 0.651200 26.114401 22.614500 25.164999 # Cg 
141 47 11 -0.325600 26.114401 22.614500 24.004999 # Og 
142 48 11 -0.325600 26.114401 22.614500 27.139000 # Og 
143 48 5 0.651200 26.114401 22.614500 25.979000 # Cg 
144 48 11 -0.325600 26.114401 22.614500 24.819000 # Og 
145 49 11 -0.325600 26.114401 22.614500 0.286000 # Og 
146 49 5 0.651200 26.114401 22.614500 26.792999 # Cg 
147 49 11 -0.325600 26.114401 22.614500 25.632999 # Og 
148 50 11 -0.325600 26.114401 22.614500 1.099000 # Og 
149 50 5 0.651200 26.114401 22.614500 27.605999 # Cg 
150 50 11 -0.325600 26.114401 22.614500 26.445999 # Og 
151 51 11 -0.325600 26.114401 22.614500 1.913000 # Og 
152 51 5 0.651200 26.114401 22.614500 0.753000 # Cg 
153 51 11 -0.325600 26.114401 22.614500 27.260000 # Og 
154 52 11 -0.325600 26.114401 22.614500 2.727000 # Og 
155 52 5 0.651200 26.114401 22.614500 1.567000 # Cg 
156 52 11 -0.325600 26.114401 22.614500 0.407000 # Og 
157 53 11 -0.325600 26.114401 22.614500 3.541000 # Og 
158 53 5 0.651200 26.114401 22.614500 2.381000 # Cg 
159 53 11 -0.325600 26.114401 22.614500 1.221000 # Og 
160 54 11 -0.325600 26.114401 22.614500 4.354000 # Og 
161 54 5 0.651200 26.114401 22.614500 3.194000 # Cg 
162 54 11 -0.325600 26.114401 22.614500 2.034000 # Og 
163 55 11 -0.325600 26.114401 22.614500 5.168000 # Og 
164 55 5 0.651200 26.114401 22.614500 4.008000 # Cg 
165 55 11 -0.325600 26.114401 22.614500 2.848000 # Og 
166 56 11 -0.325600 26.114401 22.614500 5.982000 # Og 
167 56 5 0.651200 26.114401 22.614500 4.822000 # Cg 
168 56 11 -0.325600 26.114401 22.614500 3.662000 # Og 
169 57 11 -0.325600 26.114401 22.614500 6.796000 # Og 
170 57 5 0.651200 26.114401 22.614500 5.636000 # Cg 
171 57 11 -0.325600 26.114401 22.614500 4.476000 # Og 
172 58 11 -0.325600 26.114401 22.614500 7.609000 # Og 
173 58 5 0.651200 26.114401 22.614500 6.449000 # Cg 
174 58 11 -0.325600 26.114401 22.614500 5.289000 # Og 
175 59 11 -0.325600 26.114401 22.614500 8.423000 # Og 
176 59 5 0.651200 26.114401 22.614500 7.263000 # Cg 
177 59 11 -0.325600 26.114401 22.614500 6.103000 # Og 
178 60 11 -0.325600 26.114401 22.614500 9.237000 # Og 
179 60 5 0.651200 26.114401 22.614500 8.077000 # Cg 
180 60 11 -0.325600 26.114401 22.614500 6.917000 # Og 
181 61 11 -0.325600 26.114401 22.614500 10.050000 # Og 
182 61 5 0.651200 26.114401 22.614500 8.890000 # Cg 
183 61 11 -0.325600 26.114401 22.614500 7.730000 # Og 
184 62 11 -0.325600 26.114401 22.614500 10.864000 # Og 
185 62 5 0.651200 26.114401 22.614500 9.704000 # Cg 
186 62 11 -0.325600 26.114401 22.614500 8.544000 # Og 
187 63 11 -0.325600 26.114401 22.614500 11.678000 # Og 
188 63 5 0.651200 26.114401 22.614500 10.518000 # Cg 
189 63 11 -0.325600 26.114401 22.614500 9.358000 # Og 
190 64 11 -0.325600 26.114401 22.614500 12.492000 # Og 
191 64 5 0.651200 26.114401 22.614500 11.332000 # Cg 
192 64 11 -0.325600 26.114401 22.614500 10.172000 # Og 
193 65 11 -0.325600 26.114401 22.614500 13.305000 # Og 
194 65 5 0.651200 26.114401 22.614500 12.145000 # Cg 
195 65 11 -0.325600 26.114401 22.614500 10.985000 # Og 
196 66 11 -0.325600 26.114401 22.614500 14.119000 # Og 
197 66 5 0.651200 26.114401 22.614500 12.959000 # Cg 
198 66 11 -0.325600 26.114401 22.614500 11.799000 # Og 
199 67 11 -0.325600 26.114401 22.614500 14.933000 # Og 
200 67 5 0.651200 26.114401 22.614500 13.773000 # Cg 
201 67 11 -0.325600 26.114401 22.614500 12.613000 # Og 
202 68 11 -0.325600 26.114401 22.614500 15.747000 # Og 
203 68 5 0.651200 26.114401 22.614500 14.587000 # Cg 
204 68 11 -0.325600 26.114401 22.614500 13.427000 # Og 
205 69 11 -0.325600 13.056400 45.230499 16.559999 # Og 
206 69 5 0.651200 13.056400 45.230499 15.400000 # Cg 
207 69 11 -0.325600 13.056400 45.230499 14.240000 # Og 
208 70 11 -0.325600 13.056400 45.230499 17.374001 # Og 
209 70 5 0.651200 13.056400 45.230499 16.214001 # Cg 
210 70 11 -0.325600 13.056400 45.230499 15.054000 # Og 
211 71 11 -0.325600 13.056400 45.230499 18.188000 # Og 
212 71 5 0.651200 13.056400 45.230499 17.028000 # Cg 
213 71 11 -0.325600 13.056400 45.230499 15.868000 # Og 
214 72 11 -0.325600 13.056400 45.230499 19.001999 # Og 
215 72 5 0.651200 13.056400 45.230499 17.841999 # Cg 
216 72 11 -0.325600 13.056400 45.230499 16.681999 # Og 
217 73 11 -0.325600 13.056400 45.230499 19.814999 # Og 
218 73 5 0.651200 13.056400 45.230499 18.654999 # Cg 
219 73 11 -0.325600 13.056400 45.230499 17.494999 # Og 
220 74 11 -0.325600 13.056400 45.230499 20.629000 # Og 
221 74 5 0.651200 13.056400 45.230499 19.469000 # Cg 
222 74 11 -0.325600 13.056400 45.230499 18.309000 # Og 
223 75 11 -0.325600 13.056400 45.230499 21.443001 # Og 
224 75 5 0.651200 13.056400 45.230499 20.283001 # Cg 
225 75 11 -0.325600 13.056400 45.230499 19.123001 # Og 
226 76 11 -0.325600 13.056400 45.230499 22.257000 # Og 
227 76 5 0.651200 13.056400 45.230499 21.097000 # Cg 
228 76 11 -0.325600 13.056400 45.230499 19.937000 # Og 
229 77 11 -0.325600 13.056400 45.230499 23.070000 # Og 
230 77 5 0.651200 13.056400 45.230499 21.910000 # Cg 
231 77 11 -0.325600 13.056400 45.230499 20.750000 # Og 
232 78 11 -0.325600 13.056400 45.230499 23.883999 # Og 
233 78 5 0.651200 13.056400 45.230499 22.723999 # Cg 
234 78 11 -0.325600 13.056400 45.230499 21.563999 # Og 
235 79 11 -0.325600 13.056400 45.230499 24.698000 # Og 
236 79 5 0.651200 13.056400 45.230499 23.538000 # Cg 
237 79 11 -0.325600 13.056400 45.230499 22.378000 # Og 
238 80 11 -0.325600 13.056400 45.230499 25.511000 # Og 
239 80 5 0.651200 13.056400 45.230499 24.351000 # Cg 
240 80 11 -0.325600 13.056400 45.230499 23.191000 # Og 
241 81 11 -0.325600 13.056400 45.230499 26.325001 # Og 
242 81 5 0.651200 13.056400 45.230499 25.164999 # Cg 
243 81 11 -0.325600 13.056400 45.230499 24.004999 # Og 
244 82 11 -0.325600 13.056400 45.230499 27.139000 # Og 
245 82 5 0.651200 13.056400 45.230499 25.979000 # Cg 
246 82 11 -0.325600 13.056400 45.230499 24.819000 # Og 
247 83 11 -0.325600 13.056400 45.230499 0.286000 # Og 
248 83 5 0.651200 13.056400 45.230499 26.792999 # Cg 
249 83 11 -0.325600 13.056400 45.230499 25.632999 # Og 
250 84 11 -0.325600 13.056400 45.230499 1.099000 # Og 
251 84 5 0.651200 13.056400 45.230499 27.605999 # Cg 
252 84 11 -0.325600 13.056400 45.230499 26.445999 # Og 
253 85 11 -0.325600 13.056400 45.230499 1.913000 # Og 
254 85 5 0.651200 13.056400 45.230499 0.753000 # Cg 
255 85 11 -0.325600 13.056400 45.230499 27.260000 # Og 
256 86 11 -0.325600 13.056400 45.230499 2.727000 # Og 
257 86 5 0.651200 13.056400 45.230499 1.567000 # Cg 
258 86 11 -0.325600 13.056400 45.230499 0.407000 # Og 
259 87 11 -0.325600 13.056400 45.230499 3.541000 # Og 
260 87 5 0.651200 13.056400 45.230499 2.381000 # Cg 
261 87 11 -0.325600 13.056400 45.230499 1.221000 # Og 
262 88 11 -0.325600 13.056400 45.230499 4.354000 # Og 
263 88 5 0.651200 13.056400 45.230499 3.194000 # Cg 
264 88 11 -0.325600 13.056400 45.230499 2.034000 # Og 
265 89 11 -0.325600 13.056400 45.230499 5.168000 # Og 
266 89 5 0.651200 13.056400 45.230499 4.008000 # Cg 
267 89 11 -0.325600 13.056400 45.230499 2.848000 # Og 
268 90 11 -0.325600 13.056400 45.230499 5.982000 # Og 
269 90 5 0.651200 13.056400 45.230499 4.822000 # Cg 
270 90 11 -0.325600 13.056400 45.230499 3.662000 # Og 
271 91 11 -0.325600 13.056400 45.230499 6.796000 # Og 
272 91 5 0.651200 13.056400 45.230499 5.636000 # Cg 
273 91 11 -0.325600 13.056400 45.230499 4.476000 # Og 
274 92 11 -0.325600 13.056400 45.230499 7.609000 # Og 
275 92 5 0.651200 13.056400 45.230499 6.449000 # Cg 
276 92 11 -0.325600 13.056400 45.230499 5.289000 # Og 
277 93 11 -0.325600 13.056400 45.230499 8.423000 # Og 
278 93 5 0.651200 13.056400 45.230499 7.263000 # Cg 
279 93 11 -0.325600 13.056400 45.230499 6.103000 # Og 
280 94 11 -0.325600 13.056400 45.230499 9.237000 # Og 
281 94 5 0.651200 13.056400 45.230499 8.077000 # Cg 
282 94 11 -0.325600 13.056400 45.230499 6.917000 # Og 
283 95 11 -0.325600 13.056400 45.230499 10.050000 # Og 
284 95 5 0.651200 13.056400 45.230499 8.890000 # Cg 
285 95 11 -0.325600 13.056400 45.230499 7.730000 # Og 
286 96 11 -0.325600 13.056400 45.230499 10.864000 # Og 
287 96 5 0.651200 13.056400 45.230499 9.704000 # Cg 
288 96 11 -0.325600 13.056400 45.230499 8.544000 # Og 
289 97 11 -0.325600 13.056400 45.230499 11.678000 # Og 
290 97 5 0.651200 13.056400 45.230499 10.518000 # Cg 
291 97 11 -0.325600 13.056400 45.230499 9.358000 # Og 
292 98 11 -0.325600 13.056400 45.230499 12.492000 # Og 
293 98 5 0.651200 13.056400 45.230499 11.332000 # Cg 
294 98 11 -0.325600 13.056400 45.230499 10.172000 # Og 
295 99 11 -0.325600 13.056400 45.230499 13.305000 # Og 
296 99 5 0.651200 13.056400 45.230499 12.145000 # Cg 
297 99 11 -0.325600 13.056400 45.230499 10.985000 # Og 
298 100 11 -0.325600 13.056400 45.230499 14.119000 # Og 
299 100 5 0.651200 13.056400 45.230499 12.959000 # Cg 
300 100 11 -0.325600 13.056400 45.230499 11.799000 # Og 
301 101 11 -0.325600 13.056400 45.230499 14.933000 # Og 
302 101 5 0.651200 13.056400 45.230499 13.773000 # Cg 
303 101 11 -0.325600 13.056400 45.230499 12.613000 # Og 
304 102 11 -0.325600 13.056400 45.230499 15.747000 # Og 
305 102 5 0.651200 13.056400 45.230499 14.587000 # Cg 
306 102 11 -0.325600 13.056400 45.230499 13.427000 # Og 
307 103 11 -0.325600 13.056400 22.614500 16.559999 # Og 
308 103 5 0.651200 13.056400 22.614500 15.400000 # Cg 
309 103 11 -0.325600 13.056400 22.614500 14.240000 # Og 
310 104 11 -0.325600 13.056400 22.614500 17.374001 # Og 
311 104 5 0.651200 13.056400 22.614500 16.214001 # Cg 
312 104 11 -0.325600 13.056400 22.614500 15.054000 # Og 
313 105 11 -0.325600 13.056400 22.614500 18.188000 # Og 
314 105 5 0.651200 13.056400 22.614500 17.028000 # Cg 
315 105 11 -0.325600 13.056400 22.614500 15.868000 # Og 
316 106 11 -0.325600 13.056400 22.614500 19.001999 # Og 
317 106 5 0.651200 13.056400 22.614500 17.841999 # Cg 
318 106 11 -0.325600 13.056400 22.614500 16.681999 # Og 
319 107 11 -0.325600 13.056400 22.614500 19.814999 # Og 
320 107 5 0.651200 13.056400 22.614500 18.654999 # Cg 
321 107 11 -0.325600 13.056400 22.614500 17.494999 # Og 
322 108 11 -0.325600 13.056400 22.614500 20.629000 # Og 
323 108 5 0.651200 13.056400 22.614500 19.469000 # Cg 
324 108 11 -0.325600 13.056400 22.614500 18.309000 # Og 
325 109 11 -0.325600 13.056400 22.614500 21.443001 # Og 
326 109 5 0.651200 13.056400 22.614500 20.283001 # Cg 
327 109 11 -0.325600 13.056400 22.614500 19.123001 # Og 
328 110 11 -0.325600 13.056400 22.614500 22.257000 # Og 
329 110 5 0.651200 13.056400 22.614500 21.097000 # Cg 
330 110 11 -0.325600 13.056400 22.614500 19.937000 # Og 
331 111 11 -0.325600 13.056400 22.614500 23.070000 # Og 
332 111 5 0.651200 13.056400 22.614500 21.910000 # Cg 
333 111 11 -0.325600 13.056400 22.614500 20.750000 # Og 
334 112 11 -0.325600 13.056400 22.614500 23.883999 # Og 
335 112 5 0.651200 13.056400 22.614500 22.723999 # Cg 
336 112 11 -0.325600 13.056400 22.614500 21.563999 # Og 
337 113 11 -0.325600 13.056400 22.614500 24.698000 # Og 
338 113 5 0.651200 13.056400 22.614500 23.538000 # Cg 
339 113 11 -0.325600 13.056400 22.614500 22.378000 # Og 
340 114 11 -0.325600 13.056400 22.614500 25.511000 # Og 
341 114 5 0.651200 13.056400 22.614500 24.351000 # Cg 
342 114 11 -0.325600 13.056400 22.614500 23.191000 # Og 
343 115 11 -0.325600 13.056400 22.614500 26.325001 # Og 
344 115 5 0.651200 13.056400 22.614500 25.164999 # Cg 
345 115 11 -0.325600 13.056400 22.614500 24.004999 # Og 
346 116 11 -0.325600 13.056400 22.614500 27.139000 # Og 
347 116 5 0.651200 13.056400 22.614500 25.979000 # Cg 
348 116 11 -0.325600 13.056400 22.614500 24.819000 # Og 
349 117 11 -0.325600 13.056400 22.614500 0.286000 # Og 
350 117 5 0.651200 13.056400 22.614500 26.792999 # Cg 
351 117 11 -0.325600 13.056400 22.614500 25.632999 # Og 
352 118 11 -0.325600 13.056400 22.614500 1.099000 # Og 
353 118 5 0.651200 13.056400 22.614500 27.605999 # Cg 
354 118 11 -0.325600 13.056400 22.614500 26.445999 # Og 
355 119 11 -0.325600 13.056400 22.614500 1.913000 # Og 
356 119 5 0.651200 13.056400 22.614500 0.753000 # Cg 
357 119 11 -0.325600 13.056400 22.614500 27.260000 # Og 
358 120 11 -0.325600 13.056400 22.614500 2.727000 # Og 
359 120 5 0.651200 13.056400 22.614500 1.567000 # Cg 
360 120 11 -0.325600 13.056400 22.614500 0.407000 # Og 
361 121 11 -0.325600 13.056400 22.614500 3.541000 # Og 
362 121 5 0.651200 13.056400 22.614500 2.381000 # Cg 
363 121 11 -0.325600 13.056400 22.614500 1.221000 # Og 
364 122 11 -0.325600 13.056400 22.614500 4.354000 # Og 
365 122 5 0.651200 13.056400 22.614500 3.194000 # Cg 
366 122 11 -0.325600 13.056400 22.614500 2.034000 # Og 
367 123 11 -0.325600 13.056400 22.614500 5.168000 # Og 
368 123 5 0.651200 13.056400 22.614500 4.008000 # Cg 
369 123 11 -0.325600 13.056400 22.614500 2.848000 # Og 
370 124 11 -0.325600 13.056400 22.614500 5.982000 # Og 
371 124 5 0.651200 13.056400 22.614500 4.822000 # Cg 
372 124 11 -0.325600 13.056400 22.614500 3.662000 # Og 
373 125 11 -0.325600 13.056400 22.614500 6.796000 # Og 
374 125 5 0.651200 13.056400 22.614500 5.636000 # Cg 
375 125 11 -0.325600 13.056400 22.614500 4.476000 # Og 
376 126 11 -0.325600 13.056400 22.614500 7.609000 # Og 
377 126 5 0.651200 13.056400 22.614500 6.449000 # Cg 
378 126 11 -0.325600 13.056400 22.614500 5.289000 # Og 
379 127 11 -0.325600 13.056400 22.614500 8.423000 # Og 
380 127 5 0.651200 13.056400 22.614500 7.263000 # Cg 
381 127 11 -0.325600 13.056400 22.614500 6.103000 # Og 
382 128 11 -0.325600 13.056400 22.614500 9.237000 # Og 
383 128 5 0.651200 13.056400 22.614500 8.077000 # Cg 
384 128 11 -0.325600 13.056400 22.614500 6.917000 # Og 
385 129 11 -0.325600 13.056400 22.614500 10.050000 # Og 
386 129 5 0.651200 13.056400 22.614500 8.890000 # Cg 
387 129 11 -0.325600 13.056400 22.614500 7.730000 # Og 
388 130 11 -0.325600 13.056400 22.614500 10.864000 # Og 
389 130 5 0.651200 13.056400 22.614500 9.704000 # Cg 
390 130 11 -0.325600 13.056400 22.614500 8.544000 # Og 
391 131 11 -0.325600 13.056400 22.614500 11.678000 # Og 
392 131 5 0.651200 13.056400 22.614500 10.518000 # Cg 
393 131 11 -0.325600 13.056400 22.614500 9.358000 # Og 
394 132 11 -0.325600 13.056400 22.614500 12.492000 # Og 
395 132 5 0.651200 13.056400 22.614500 11.332000 # Cg 
396 132 11 -0.325600 13.056400 22.614500 10.172000 # Og 
397 133 11 -0.325600 13.056400 22.614500 13.305000 # Og 
398 133 5 0.651200 13.056400 22.614500 12.145000 # Cg 
399 133 11 -0.325600 13.056400 22.614500 10.985000 # Og 
400 134 7 1.560000 5.314000 7.966000 21.684460 # Mg LIG
401 134 7 1.560000 18.371000 30.580999 21.684460 # Mg LIG
402 134 7 1.560000 4.242000 6.491000 19.378460 # Mg LIG
403 134 7 1.560000 17.299000 29.106001 19.378460 # Mg LIG
404 134 7 1.560000 3.501000 8.158000 23.990459 # Mg LIG
405 134 7 1.560000 16.558001 30.773001 23.990459 # Mg LIG
406 134 7 1.560000 7.743000 14.649000 19.815460 # Mg LIG
407 134 7 1.560000 20.799000 37.264000 19.815460 # Mg LIG
408 134 7 1.560000 8.815000 16.124001 22.120461 # Mg LIG
409 134 7 1.560000 21.872000 38.738998 22.120461 # Mg LIG
410 134 7 1.560000 9.556000 14.457000 17.509460 # Mg LIG
411 134 7 1.560000 22.613001 37.071999 17.509460 # Mg LIG
412 134 7 1.560000 8.815000 31.200001 19.815460 # Mg LIG
413 134 7 1.560000 21.872000 8.585000 19.815460 # Mg LIG
414 134 7 1.560000 9.556000 29.534000 22.120461 # Mg LIG
415 134 7 1.560000 22.613001 6.919000 22.120461 # Mg LIG
416 134 7 1.560000 4.242000 21.568001 23.990459 # Mg LIG
417 134 7 1.560000 17.299000 44.182999 23.990459 # Mg LIG
418 134 7 1.560000 8.815000 1.047000 17.509460 # Mg LIG
419 134 7 1.560000 21.872000 23.662001 17.509460 # Mg LIG
420 134 7 1.560000 5.314000 38.118999 23.990459 # Mg LIG
421 134 7 1.560000 18.371000 15.504000 23.990459 # Mg LIG
422 134 7 1.560000 7.743000 44.801998 22.120461 # Mg LIG
423 134 7 1.560000 20.799000 22.187000 22.120461 # Mg LIG
424 134 7 1.560000 9.556000 44.611000 19.815460 # Mg LIG
425 134 7 1.560000 22.613001 21.996000 19.815460 # Mg LIG
426 134 7 1.560000 3.501000 38.311001 19.378460 # Mg LIG
427 134 7 1.560000 16.558001 15.696000 19.378460 # Mg LIG
428 134 7 1.560000 4.242000 36.645000 21.684460 # Mg LIG
429 134 7 1.560000 17.299000 14.030000 21.684460 # Mg LIG
430 134 7 1.560000 5.314000 23.042999 19.378460 # Mg LIG
431 134 7 1.560000 18.371000 0.428000 19.378460 # Mg LIG
432 134 7 1.560000 3.501000 23.233999 21.684460 # Mg LIG
433 134 7 1.560000 16.558001 0.619000 21.684460 # Mg LIG
434 134 7 1.560000 7.743000 29.726000 17.509460 # Mg LIG
435 134 7 1.560000 20.799000 7.111000 17.509460 # Mg LIG
436 134 1 0.900000 5.704000 9.170000 19.055460 # Ca LIG
437 134 1 0.900000 18.761000 31.785000 19.055460 # Ca LIG
438 134 2 -0.314000 6.098000 10.247000 18.115459 # Cb LIG
439 134 2 -0.314000 19.155001 32.862000 18.115459 # Cb LIG
440 134 4 -0.234000 6.932000 11.258000 18.610460 # Cd LIG
441 134 4 -0.234000 19.989000 33.873001 18.610460 # Cd LIG
442 134 6 0.186000 7.248000 11.206000 19.650459 # H LIG
443 134 6 0.186000 20.305000 33.820999 19.650459 # H LIG
444 134 9 -0.752000 6.149000 9.140000 20.245461 # Ob LIG
445 134 9 -0.752000 19.205999 31.754999 20.245461 # Ob LIG
446 134 8 -0.899000 4.881000 8.269000 18.627460 # Oa LIG
447 134 8 -0.899000 17.938000 30.884001 18.627460 # Oa LIG
448 134 10 -0.903000 8.183000 13.257000 18.410460 # Oc LIG
449 134 10 -0.903000 21.240000 35.872002 18.410460 # Oc LIG
450 134 8 -0.899000 4.721000 6.715000 23.238461 # Oa LIG
451 134 8 -0.899000 17.777000 29.330000 23.238461 # Oa LIG
452 134 8 -0.899000 3.455000 7.631000 20.933460 # Oa LIG
453 134 8 -0.899000 16.511000 30.246000 20.933460 # Oa LIG
454 134 10 -0.903000 4.874000 9.358000 23.088459 # Oc LIG
455 134 10 -0.903000 17.930000 31.973000 23.088459 # Oc LIG
456 134 10 -0.903000 5.668000 6.177000 20.783461 # Oc LIG
457 134 10 -0.903000 18.725000 28.792000 20.783461 # Oc LIG
458 134 3 0.456000 5.672000 10.284000 23.664459 # Cc LIG
459 134 3 0.456000 18.729000 32.898998 23.664459 # Cc LIG
460 134 1 0.900000 7.353000 13.445000 22.444460 # Ca LIG
461 134 1 0.900000 20.409000 36.060001 22.444460 # Ca LIG
462 134 2 -0.314000 6.959000 12.368000 23.384460 # Cb LIG
463 134 2 -0.314000 20.016001 34.983002 23.384460 # Cb LIG
464 134 3 0.456000 7.384000 12.331000 17.835461 # Cc LIG
465 134 3 0.456000 20.441000 34.945999 17.835461 # Cc LIG
466 134 4 -0.234000 6.125000 11.357000 22.889460 # Cd LIG
467 134 4 -0.234000 19.181000 33.972000 22.889460 # Cd LIG
468 134 6 0.186000 5.809000 11.409000 21.849461 # H LIG
469 134 6 0.186000 18.865999 34.023998 21.849461 # H LIG
470 134 9 -0.752000 6.908000 13.475000 21.254459 # Ob LIG
471 134 9 -0.752000 19.965000 36.090000 21.254459 # Ob LIG
472 134 8 -0.899000 8.175000 14.346000 22.871460 # Oa LIG
473 134 8 -0.899000 21.232000 36.960999 22.871460 # Oa LIG
474 134 8 -0.899000 8.336000 15.900000 18.260460 # Oa LIG
475 134 8 -0.899000 21.393000 38.514999 18.260460 # Oa LIG
476 134 8 -0.899000 9.602000 14.984000 20.566460 # Oa LIG
477 134 8 -0.899000 22.659000 37.598999 20.566460 # Oa LIG
478 134 10 -0.903000 7.389000 16.438000 20.716461 # Oc LIG
479 134 10 -0.903000 20.445999 39.053001 20.716461 # Oc LIG
480 134 8 -0.899000 9.602000 30.059999 18.260460 # Oa LIG
481 134 8 -0.899000 22.659000 7.445000 18.260460 # Oa LIG
482 134 8 -0.899000 8.336000 30.976999 22.871460 # Oa LIG
483 134 8 -0.899000 21.393000 8.362000 22.871460 # Oa LIG
484 134 8 -0.899000 4.721000 21.791000 20.933460 # Oa LIG
485 134 8 -0.899000 17.777000 44.405998 20.933460 # Oa LIG
486 134 10 -0.903000 5.668000 21.254000 18.477459 # Oc LIG
487 134 10 -0.903000 18.725000 43.868999 18.477459 # Oc LIG
488 134 8 -0.899000 8.336000 0.824000 20.566460 # Oa LIG
489 134 8 -0.899000 21.393000 23.438999 20.566460 # Oa LIG
490 134 10 -0.903000 7.389000 1.361000 23.021460 # Oc LIG
491 134 10 -0.903000 20.445999 23.976000 23.021460 # Oc LIG
492 134 10 -0.903000 4.874000 39.512001 18.477459 # Oc LIG
493 134 10 -0.903000 17.930000 16.896999 18.477459 # Oc LIG
494 134 1 0.900000 5.704000 39.324001 21.360460 # Ca LIG
495 134 1 0.900000 18.761000 16.709000 21.360460 # Ca LIG
496 134 2 -0.314000 6.098000 40.401001 20.421459 # Cb LIG
497 134 2 -0.314000 19.155001 17.785999 20.421459 # Cb LIG
498 134 3 0.456000 5.672000 40.438000 19.053459 # Cc LIG
499 134 3 0.456000 18.729000 17.823000 19.053459 # Cc LIG
500 134 4 -0.234000 6.932000 41.410999 20.916460 # Cd LIG
501 134 4 -0.234000 19.989000 18.796000 20.916460 # Cd LIG
502 134 6 0.186000 7.248000 41.359001 21.955460 # H LIG
503 134 6 0.186000 20.305000 18.743999 21.955460 # H LIG
504 134 9 -0.752000 6.149000 39.292999 22.550461 # Ob LIG
505 134 9 -0.752000 19.205999 16.677999 22.550461 # Ob LIG
506 134 8 -0.899000 4.882000 38.423000 20.933460 # Oa LIG
507 134 8 -0.899000 17.938000 15.808000 20.933460 # Oa LIG
508 134 2 -0.314000 6.959000 42.521000 18.773460 # Cb LIG
509 134 2 -0.314000 20.016001 19.906000 18.773460 # Cb LIG
510 134 3 0.456000 7.384000 42.484001 20.140461 # Cc LIG
511 134 3 0.456000 20.441000 19.868999 20.140461 # Cc LIG
512 134 4 -0.234000 6.125000 41.509998 18.277460 # Cd LIG
513 134 4 -0.234000 19.181000 18.895000 18.277460 # Cd LIG
514 134 8 -0.899000 8.175000 44.499001 18.260460 # Oa LIG
515 134 8 -0.899000 21.232000 21.884001 18.260460 # Oa LIG
516 134 10 -0.903000 8.183000 43.410000 20.716461 # Oc LIG
517 134 10 -0.903000 21.240000 20.795000 20.716461 # Oc LIG
518 134 10 -0.903000 5.668000 36.330002 23.088459 # Oc LIG
519 134 10 -0.903000 18.725000 13.715000 23.088459 # Oc LIG
520 134 1 0.900000 7.353000 43.598000 17.833460 # Ca LIG
521 134 1 0.900000 20.409000 20.983000 17.833460 # Ca LIG
522 134 9 -0.752000 6.908000 43.627998 23.559460 # Ob LIG
523 134 9 -0.752000 19.965000 21.013000 23.559460 # Ob LIG
524 134 8 -0.899000 9.602000 45.137001 22.871460 # Oa LIG
525 134 8 -0.899000 22.659000 22.521999 22.871460 # Oa LIG
526 134 8 -0.899000 4.721000 36.868000 18.627460 # Oa LIG
527 134 8 -0.899000 17.778000 14.253000 18.627460 # Oa LIG