LAMMPS data file. CGCMM style. atom_style full generated by VMD/TopoTools v1.5 on Mon Apr 24 10:59:34 PDT 2017
 3576 atoms
 656 bonds
 0 angles
 0 dihedrals
 0 impropers
 11 atom types
 1 bond types
 0 angle types
 0 dihedral types
 0 improper types
 0.451838 52.642840  xlo xhi
 0.325101 45.523500  ylo yhi
 0.152880 27.680121  zlo zhi

# Pair Coeffs
#
# 1  Ca
# 2  Cb
# 3  Cc
# 4  Cd
# 5  Cg
# 6  H
# 7  Oa
# 8  Ob
# 9  Oc
# 10  Og
# 11  Zn

 Masses

 1 12.011000 # Ca
 2 12.011000 # Cb
 3 12.011000 # Cc
 4 12.011000 # Cd
 5 12.011000 # Cg
 6 1.008000 # H
 7 15.999000 # Oa
 8 15.999000 # Ob
 9 15.999000 # Oc
 10 15.999000 # Og
 11 65.379997 # Zn

 Atoms

1 1 10 -0.325600 52.190678 45.197601 16.250999 # Og 
2 1 5 0.651200 52.190678 45.197601 15.091001 # Cg 
3 1 10 -0.325600 52.190678 45.197601 13.931001 # Og 
4 2 10 -0.325600 52.190678 45.197601 16.587002 # Og 
5 2 5 0.651200 52.190678 45.197601 15.427000 # Cg 
6 2 10 -0.325600 52.190678 45.197601 14.267000 # Og 
7 3 10 -0.325600 52.190678 45.197601 16.923000 # Og 
8 3 5 0.651200 52.190678 45.197601 15.763000 # Cg 
9 3 10 -0.325600 52.190678 45.197601 14.603001 # Og 
10 4 10 -0.325600 52.190678 45.197601 17.257999 # Og 
11 4 5 0.651200 52.190678 45.197601 16.098000 # Cg 
12 4 10 -0.325600 52.190678 45.197601 14.938001 # Og 
13 5 10 -0.325600 52.190678 45.197601 17.594002 # Og 
14 5 5 0.651200 52.190678 45.197601 16.434000 # Cg 
15 5 10 -0.325600 52.190678 45.197601 15.274000 # Og 
16 6 10 -0.325600 52.190678 45.197601 17.930000 # Og 
17 6 5 0.651200 52.190678 45.197601 16.770000 # Cg 
18 6 10 -0.325600 52.190678 45.197601 15.610001 # Og 
19 7 10 -0.325600 52.190678 45.197601 18.264999 # Og 
20 7 5 0.651200 52.190678 45.197601 17.105000 # Cg 
21 7 10 -0.325600 52.190678 45.197601 15.945001 # Og 
22 8 10 -0.325600 52.190678 45.197601 18.601002 # Og 
23 8 5 0.651200 52.190678 45.197601 17.441000 # Cg 
24 8 10 -0.325600 52.190678 45.197601 16.281000 # Og 
25 9 10 -0.325600 52.190678 45.197601 18.937000 # Og 
26 9 5 0.651200 52.190678 45.197601 17.777000 # Cg 
27 9 10 -0.325600 52.190678 45.197601 16.617001 # Og 
28 10 10 -0.325600 52.190678 45.197601 19.273001 # Og 
29 10 5 0.651200 52.190678 45.197601 18.113001 # Cg 
30 10 10 -0.325600 52.190678 45.197601 16.952999 # Og 
31 11 10 -0.325600 52.190678 45.197601 19.608000 # Og 
32 11 5 0.651200 52.190678 45.197601 18.448000 # Cg 
33 11 10 -0.325600 52.190678 45.197601 17.288000 # Og 
34 12 10 -0.325600 52.190678 45.197601 19.944000 # Og 
35 12 5 0.651200 52.190678 45.197601 18.784000 # Cg 
36 12 10 -0.325600 52.190678 45.197601 17.624001 # Og 
37 13 10 -0.325600 52.190678 45.197601 20.280001 # Og 
38 13 5 0.651200 52.190678 45.197601 19.120001 # Cg 
39 13 10 -0.325600 52.190678 45.197601 17.959999 # Og 
40 14 10 -0.325600 52.190678 45.197601 20.615000 # Og 
41 14 5 0.651200 52.190678 45.197601 19.455002 # Cg 
42 14 10 -0.325600 52.190678 45.197601 18.295000 # Og 
43 15 10 -0.325600 52.190678 45.197601 20.951000 # Og 
44 15 5 0.651200 52.190678 45.197601 19.791000 # Cg 
45 15 10 -0.325600 52.190678 45.197601 18.631001 # Og 
46 16 10 -0.325600 52.190678 45.197601 21.287001 # Og 
47 16 5 0.651200 52.190678 45.197601 20.127001 # Cg 
48 16 10 -0.325600 52.190678 45.197601 18.966999 # Og 
49 17 10 -0.325600 52.190678 45.197601 21.622000 # Og 
50 17 5 0.651200 52.190678 45.197601 20.462000 # Cg 
51 17 10 -0.325600 52.190678 45.197601 19.302000 # Og 
52 18 10 -0.325600 52.190678 45.197601 21.958000 # Og 
53 18 5 0.651200 52.190678 45.197601 20.798000 # Cg 
54 18 10 -0.325600 52.190678 45.197601 19.638000 # Og 
55 19 10 -0.325600 52.190678 45.197601 22.294001 # Og 
56 19 5 0.651200 52.190678 45.197601 21.134001 # Cg 
57 19 10 -0.325600 52.190678 45.197601 19.974001 # Og 
58 20 10 -0.325600 52.190678 45.197601 22.629002 # Og 
59 20 5 0.651200 52.190678 45.197601 21.469000 # Cg 
60 20 10 -0.325600 52.190678 45.197601 20.309000 # Og 
61 21 10 -0.325600 52.190678 45.197601 22.965000 # Og 
62 21 5 0.651200 52.190678 45.197601 21.805000 # Cg 
63 21 10 -0.325600 52.190678 45.197601 20.645000 # Og 
64 22 10 -0.325600 52.190678 45.197601 23.301001 # Og 
65 22 5 0.651200 52.190678 45.197601 22.141001 # Cg 
66 22 10 -0.325600 52.190678 45.197601 20.981001 # Og 
67 23 10 -0.325600 52.190678 45.197601 23.637001 # Og 
68 23 5 0.651200 52.190678 45.197601 22.477001 # Cg 
69 23 10 -0.325600 52.190678 45.197601 21.317001 # Og 
70 24 10 -0.325600 52.190678 45.197601 23.972000 # Og 
71 24 5 0.651200 52.190678 45.197601 22.812000 # Cg 
72 24 10 -0.325600 52.190678 45.197601 21.652000 # Og 
73 25 10 -0.325600 52.190678 45.197601 24.308001 # Og 
74 25 5 0.651200 52.190678 45.197601 23.148001 # Cg 
75 25 10 -0.325600 52.190678 45.197601 21.988001 # Og 
76 26 10 -0.325600 52.190678 45.197601 24.644001 # Og 
77 26 5 0.651200 52.190678 45.197601 23.484001 # Cg 
78 26 10 -0.325600 52.190678 45.197601 22.324001 # Og 
79 27 10 -0.325600 52.190678 45.197601 24.979000 # Og 
80 27 5 0.651200 52.190678 45.197601 23.819000 # Cg 
81 27 10 -0.325600 52.190678 45.197601 22.659000 # Og 
82 28 10 -0.325600 52.190678 45.197601 25.315001 # Og 
83 28 5 0.651200 52.190678 45.197601 24.155001 # Cg 
84 28 10 -0.325600 52.190678 45.197601 22.995001 # Og 
85 29 10 -0.325600 52.190678 45.197601 25.651001 # Og 
86 29 5 0.651200 52.190678 45.197601 24.491001 # Cg 
87 29 10 -0.325600 52.190678 45.197601 23.331001 # Og 
88 30 10 -0.325600 52.190678 45.197601 25.986000 # Og 
89 30 5 0.651200 52.190678 45.197601 24.826000 # Cg 
90 30 10 -0.325600 52.190678 45.197601 23.666000 # Og 
91 31 10 -0.325600 52.190678 45.197601 26.322001 # Og 
92 31 5 0.651200 52.190678 45.197601 25.162001 # Cg 
93 31 10 -0.325600 52.190678 45.197601 24.002001 # Og 
94 32 10 -0.325600 52.190678 45.197601 26.658001 # Og 
95 32 5 0.651200 52.190678 45.197601 25.498001 # Cg 
96 32 10 -0.325600 52.190678 45.197601 24.338001 # Og 
97 33 10 -0.325600 52.190678 45.197601 26.993999 # Og 
98 33 5 0.651200 52.190678 45.197601 25.834000 # Cg 
99 33 10 -0.325600 52.190678 45.197601 24.674000 # Og 
100 34 10 -0.325600 52.190678 45.197601 27.329000 # Og 
101 34 5 0.651200 52.190678 45.197601 26.169001 # Cg 
102 34 10 -0.325600 52.190678 45.197601 25.009001 # Og 
103 35 10 -0.325600 52.190678 45.197601 0.138000 # Og 
104 35 5 0.651200 52.190678 45.197601 26.505001 # Cg 
105 35 10 -0.325600 52.190678 45.197601 25.345001 # Og 
106 36 10 -0.325600 52.190678 45.197601 0.474000 # Og 
107 36 5 0.651200 52.190678 45.197601 26.841000 # Cg 
108 36 10 -0.325600 52.190678 45.197601 25.681000 # Og 
109 37 10 -0.325600 52.190678 45.197601 0.809000 # Og 
110 37 5 0.651200 52.190678 45.197601 27.176001 # Cg 
111 37 10 -0.325600 52.190678 45.197601 26.016001 # Og 
112 38 10 -0.325600 52.190678 45.197601 1.145000 # Og 
113 38 5 0.651200 52.190678 45.197601 27.512001 # Cg 
114 38 10 -0.325600 52.190678 45.197601 26.352001 # Og 
115 39 10 -0.325600 52.190678 45.197601 1.481000 # Og 
116 39 5 0.651200 52.190678 45.197601 0.321000 # Cg 
117 39 10 -0.325600 52.190678 45.197601 26.688000 # Og 
118 40 10 -0.325600 52.190678 45.197601 1.816000 # Og 
119 40 5 0.651200 52.190678 45.197601 0.656000 # Cg 
120 40 10 -0.325600 52.190678 45.197601 27.023001 # Og 
121 41 10 -0.325600 52.190678 45.197601 2.152000 # Og 
122 41 5 0.651200 52.190678 45.197601 0.992000 # Cg 
123 41 10 -0.325600 52.190678 45.197601 27.359001 # Og 
124 42 10 -0.325600 52.190678 45.197601 2.488000 # Og 
125 42 5 0.651200 52.190678 45.197601 1.328000 # Cg 
126 42 10 -0.325600 52.190678 45.197601 0.168000 # Og 
127 43 10 -0.325600 52.190678 45.197601 2.824000 # Og 
128 43 5 0.651200 52.190678 45.197601 1.664000 # Cg 
129 43 10 -0.325600 52.190678 45.197601 0.504000 # Og 
130 44 10 -0.325600 52.190678 45.197601 3.159000 # Og 
131 44 5 0.651200 52.190678 45.197601 1.999000 # Cg 
132 44 10 -0.325600 52.190678 45.197601 0.839000 # Og 
133 45 10 -0.325600 52.190678 45.197601 3.495000 # Og 
134 45 5 0.651200 52.190678 45.197601 2.335000 # Cg 
135 45 10 -0.325600 52.190678 45.197601 1.175000 # Og 
136 46 10 -0.325600 52.190678 45.197601 3.831000 # Og 
137 46 5 0.651200 52.190678 45.197601 2.671000 # Cg 
138 46 10 -0.325600 52.190678 45.197601 1.511000 # Og 
139 47 10 -0.325600 52.190678 45.197601 4.166000 # Og 
140 47 5 0.651200 52.190678 45.197601 3.006000 # Cg 
141 47 10 -0.325600 52.190678 45.197601 1.846000 # Og 
142 48 10 -0.325600 52.190678 45.197601 4.502000 # Og 
143 48 5 0.651200 52.190678 45.197601 3.342000 # Cg 
144 48 10 -0.325600 52.190678 45.197601 2.182000 # Og 
145 49 10 -0.325600 52.190678 45.197601 4.838000 # Og 
146 49 5 0.651200 52.190678 45.197601 3.678000 # Cg 
147 49 10 -0.325600 52.190678 45.197601 2.518000 # Og 
148 50 10 -0.325600 52.190678 45.197601 5.173000 # Og 
149 50 5 0.651200 52.190678 45.197601 4.013000 # Cg 
150 50 10 -0.325600 52.190678 45.197601 2.853000 # Og 
151 51 10 -0.325600 52.190678 45.197601 5.509000 # Og 
152 51 5 0.651200 52.190678 45.197601 4.349000 # Cg 
153 51 10 -0.325600 52.190678 45.197601 3.189000 # Og 
154 52 10 -0.325600 52.190678 45.197601 5.845000 # Og 
155 52 5 0.651200 52.190678 45.197601 4.685000 # Cg 
156 52 10 -0.325600 52.190678 45.197601 3.525000 # Og 
157 53 10 -0.325600 52.190678 45.197601 6.181000 # Og 
158 53 5 0.651200 52.190678 45.197601 5.021000 # Cg 
159 53 10 -0.325600 52.190678 45.197601 3.861000 # Og 
160 54 10 -0.325600 52.190678 45.197601 6.516000 # Og 
161 54 5 0.651200 52.190678 45.197601 5.356000 # Cg 
162 54 10 -0.325600 52.190678 45.197601 4.196000 # Og 
163 55 10 -0.325600 52.190678 45.197601 6.852000 # Og 
164 55 5 0.651200 52.190678 45.197601 5.692000 # Cg 
165 55 10 -0.325600 52.190678 45.197601 4.532000 # Og 
166 56 10 -0.325600 52.190678 45.197601 7.188000 # Og 
167 56 5 0.651200 52.190678 45.197601 6.028000 # Cg 
168 56 10 -0.325600 52.190678 45.197601 4.868000 # Og 
169 57 10 -0.325600 52.190678 45.197601 7.523000 # Og 
170 57 5 0.651200 52.190678 45.197601 6.363000 # Cg 
171 57 10 -0.325600 52.190678 45.197601 5.203000 # Og 
172 58 10 -0.325600 52.190678 45.197601 7.859000 # Og 
173 58 5 0.651200 52.190678 45.197601 6.699000 # Cg 
174 58 10 -0.325600 52.190678 45.197601 5.539000 # Og 
175 59 10 -0.325600 52.190678 45.197601 8.195000 # Og 
176 59 5 0.651200 52.190678 45.197601 7.035000 # Cg 
177 59 10 -0.325600 52.190678 45.197601 5.875000 # Og 
178 60 10 -0.325600 52.190678 45.197601 8.530000 # Og 
179 60 5 0.651200 52.190678 45.197601 7.370000 # Cg 
180 60 10 -0.325600 52.190678 45.197601 6.210000 # Og 
181 61 10 -0.325600 52.190678 45.197601 8.866000 # Og 
182 61 5 0.651200 52.190678 45.197601 7.706000 # Cg 
183 61 10 -0.325600 52.190678 45.197601 6.546000 # Og 
184 62 10 -0.325600 52.190678 45.197601 9.202000 # Og 
185 62 5 0.651200 52.190678 45.197601 8.042000 # Cg 
186 62 10 -0.325600 52.190678 45.197601 6.882000 # Og 
187 63 10 -0.325600 52.190678 45.197601 9.538000 # Og 
188 63 5 0.651200 52.190678 45.197601 8.378000 # Cg 
189 63 10 -0.325600 52.190678 45.197601 7.218000 # Og 
190 64 10 -0.325600 52.190678 45.197601 9.873000 # Og 
191 64 5 0.651200 52.190678 45.197601 8.713000 # Cg 
192 64 10 -0.325600 52.190678 45.197601 7.553000 # Og 
193 65 10 -0.325600 52.190678 45.197601 10.209000 # Og 
194 65 5 0.651200 52.190678 45.197601 9.049000 # Cg 
195 65 10 -0.325600 52.190678 45.197601 7.889000 # Og 
196 66 10 -0.325600 52.190678 45.197601 10.545000 # Og 
197 66 5 0.651200 52.190678 45.197601 9.385000 # Cg 
198 66 10 -0.325600 52.190678 45.197601 8.225000 # Og 
199 67 10 -0.325600 52.190678 45.197601 10.880000 # Og 
200 67 5 0.651200 52.190678 45.197601 9.720000 # Cg 
201 67 10 -0.325600 52.190678 45.197601 8.560000 # Og 
202 68 10 -0.325600 52.190678 45.197601 11.216000 # Og 
203 68 5 0.651200 52.190678 45.197601 10.056000 # Cg 
204 68 10 -0.325600 52.190678 45.197601 8.896000 # Og 
205 69 10 -0.325600 52.190678 45.197601 11.552000 # Og 
206 69 5 0.651200 52.190678 45.197601 10.392000 # Cg 
207 69 10 -0.325600 52.190678 45.197601 9.232000 # Og 
208 70 10 -0.325600 52.190678 45.197601 11.887000 # Og 
209 70 5 0.651200 52.190678 45.197601 10.727000 # Cg 
210 70 10 -0.325600 52.190678 45.197601 9.567000 # Og 
211 71 10 -0.325600 52.190678 45.197601 12.223000 # Og 
212 71 5 0.651200 52.190678 45.197601 11.063000 # Cg 
213 71 10 -0.325600 52.190678 45.197601 9.903000 # Og 
214 72 10 -0.325600 52.190678 45.197601 12.559000 # Og 
215 72 5 0.651200 52.190678 45.197601 11.399000 # Cg 
216 72 10 -0.325600 52.190678 45.197601 10.239000 # Og 
217 73 10 -0.325600 52.190678 45.197601 12.894000 # Og 
218 73 5 0.651200 52.190678 45.197601 11.734000 # Cg 
219 73 10 -0.325600 52.190678 45.197601 10.574000 # Og 
220 74 10 -0.325600 52.190678 45.197601 13.230000 # Og 
221 74 5 0.651200 52.190678 45.197601 12.070000 # Cg 
222 74 10 -0.325600 52.190678 45.197601 10.910000 # Og 
223 75 10 -0.325600 52.190678 45.197601 13.566000 # Og 
224 75 5 0.651200 52.190678 45.197601 12.406000 # Cg 
225 75 10 -0.325600 52.190678 45.197601 11.246000 # Og 
226 76 10 -0.325600 52.190678 45.197601 13.902000 # Og 
227 76 5 0.651200 52.190678 45.197601 12.742000 # Cg 
228 76 10 -0.325600 52.190678 45.197601 11.582000 # Og 
229 77 10 -0.325600 52.190678 45.197601 14.237000 # Og 
230 77 5 0.651200 52.190678 45.197601 13.077000 # Cg 
231 77 10 -0.325600 52.190678 45.197601 11.917000 # Og 
232 78 10 -0.325600 52.190678 45.197601 14.573000 # Og 
233 78 5 0.651200 52.190678 45.197601 13.413000 # Cg 
234 78 10 -0.325600 52.190678 45.197601 12.253000 # Og 
235 79 10 -0.325600 52.190678 45.197601 14.909000 # Og 
236 79 5 0.651200 52.190678 45.197601 13.749000 # Cg 
237 79 10 -0.325600 52.190678 45.197601 12.589000 # Og 
238 80 10 -0.325600 52.190678 45.197601 15.244000 # Og 
239 80 5 0.651200 52.190678 45.197601 14.084000 # Cg 
240 80 10 -0.325600 52.190678 45.197601 12.924000 # Og 
241 81 10 -0.325600 52.190678 45.197601 15.580000 # Og 
242 81 5 0.651200 52.190678 45.197601 14.420000 # Cg 
243 81 10 -0.325600 52.190678 45.197601 13.260000 # Og 
244 82 10 -0.325600 52.190678 45.197601 15.916000 # Og 
245 82 5 0.651200 52.190678 45.197601 14.756000 # Cg 
246 82 10 -0.325600 52.190678 45.197601 13.596000 # Og 
247 83 10 -0.325600 52.190678 22.599600 16.250999 # Og 
248 83 5 0.651200 52.190678 22.599600 15.091001 # Cg 
249 83 10 -0.325600 52.190678 22.599600 13.931001 # Og 
250 84 10 -0.325600 52.190678 22.599600 16.587002 # Og 
251 84 5 0.651200 52.190678 22.599600 15.427000 # Cg 
252 84 10 -0.325600 52.190678 22.599600 14.267000 # Og 
253 85 10 -0.325600 52.190678 22.599600 16.923000 # Og 
254 85 5 0.651200 52.190678 22.599600 15.763000 # Cg 
255 85 10 -0.325600 52.190678 22.599600 14.603001 # Og 
256 86 10 -0.325600 52.190678 22.599600 17.257999 # Og 
257 86 5 0.651200 52.190678 22.599600 16.098000 # Cg 
258 86 10 -0.325600 52.190678 22.599600 14.938001 # Og 
259 87 10 -0.325600 52.190678 22.599600 17.594002 # Og 
260 87 5 0.651200 52.190678 22.599600 16.434000 # Cg 
261 87 10 -0.325600 52.190678 22.599600 15.274000 # Og 
262 88 10 -0.325600 52.190678 22.599600 17.930000 # Og 
263 88 5 0.651200 52.190678 22.599600 16.770000 # Cg 
264 88 10 -0.325600 52.190678 22.599600 15.610001 # Og 
265 89 10 -0.325600 52.190678 22.599600 18.264999 # Og 
266 89 5 0.651200 52.190678 22.599600 17.105000 # Cg 
267 89 10 -0.325600 52.190678 22.599600 15.945001 # Og 
268 90 10 -0.325600 52.190678 22.599600 18.601002 # Og 
269 90 5 0.651200 52.190678 22.599600 17.441000 # Cg 
270 90 10 -0.325600 52.190678 22.599600 16.281000 # Og 
271 91 10 -0.325600 52.190678 22.599600 18.937000 # Og 
272 91 5 0.651200 52.190678 22.599600 17.777000 # Cg 
273 91 10 -0.325600 52.190678 22.599600 16.617001 # Og 
274 92 10 -0.325600 52.190678 22.599600 19.273001 # Og 
275 92 5 0.651200 52.190678 22.599600 18.113001 # Cg 
276 92 10 -0.325600 52.190678 22.599600 16.952999 # Og 
277 93 10 -0.325600 52.190678 22.599600 19.608000 # Og 
278 93 5 0.651200 52.190678 22.599600 18.448000 # Cg 
279 93 10 -0.325600 52.190678 22.599600 17.288000 # Og 
280 94 10 -0.325600 52.190678 22.599600 19.944000 # Og 
281 94 5 0.651200 52.190678 22.599600 18.784000 # Cg 
282 94 10 -0.325600 52.190678 22.599600 17.624001 # Og 
283 95 10 -0.325600 52.190678 22.599600 20.280001 # Og 
284 95 5 0.651200 52.190678 22.599600 19.120001 # Cg 
285 95 10 -0.325600 52.190678 22.599600 17.959999 # Og 
286 96 10 -0.325600 52.190678 22.599600 20.615000 # Og 
287 96 5 0.651200 52.190678 22.599600 19.455002 # Cg 
288 96 10 -0.325600 52.190678 22.599600 18.295000 # Og 
289 97 10 -0.325600 52.190678 22.599600 20.951000 # Og 
290 97 5 0.651200 52.190678 22.599600 19.791000 # Cg 
291 97 10 -0.325600 52.190678 22.599600 18.631001 # Og 
292 98 10 -0.325600 52.190678 22.599600 21.287001 # Og 
293 98 5 0.651200 52.190678 22.599600 20.127001 # Cg 
294 98 10 -0.325600 52.190678 22.599600 18.966999 # Og 
295 99 10 -0.325600 52.190678 22.599600 21.622000 # Og 
296 99 5 0.651200 52.190678 22.599600 20.462000 # Cg 
297 99 10 -0.325600 52.190678 22.599600 19.302000 # Og 
298 100 10 -0.325600 52.190678 22.599600 21.958000 # Og 
299 100 5 0.651200 52.190678 22.599600 20.798000 # Cg 
300 100 10 -0.325600 52.190678 22.599600 19.638000 # Og 
301 101 10 -0.325600 52.190678 22.599600 22.294001 # Og 
302 101 5 0.651200 52.190678 22.599600 21.134001 # Cg 
303 101 10 -0.325600 52.190678 22.599600 19.974001 # Og 
304 102 10 -0.325600 52.190678 22.599600 22.629002 # Og 
305 102 5 0.651200 52.190678 22.599600 21.469000 # Cg 
306 102 10 -0.325600 52.190678 22.599600 20.309000 # Og 
307 103 10 -0.325600 52.190678 22.599600 22.965000 # Og 
308 103 5 0.651200 52.190678 22.599600 21.805000 # Cg 
309 103 10 -0.325600 52.190678 22.599600 20.645000 # Og 
310 104 10 -0.325600 52.190678 22.599600 23.301001 # Og 
311 104 5 0.651200 52.190678 22.599600 22.141001 # Cg 
312 104 10 -0.325600 52.190678 22.599600 20.981001 # Og 
313 105 10 -0.325600 52.190678 22.599600 23.637001 # Og 
314 105 5 0.651200 52.190678 22.599600 22.477001 # Cg 
315 105 10 -0.325600 52.190678 22.599600 21.317001 # Og 
316 106 10 -0.325600 52.190678 22.599600 23.972000 # Og 
317 106 5 0.651200 52.190678 22.599600 22.812000 # Cg 
318 106 10 -0.325600 52.190678 22.599600 21.652000 # Og 
319 107 10 -0.325600 52.190678 22.599600 24.308001 # Og 
320 107 5 0.651200 52.190678 22.599600 23.148001 # Cg 
321 107 10 -0.325600 52.190678 22.599600 21.988001 # Og 
322 108 10 -0.325600 52.190678 22.599600 24.644001 # Og 
323 108 5 0.651200 52.190678 22.599600 23.484001 # Cg 
324 108 10 -0.325600 52.190678 22.599600 22.324001 # Og 
325 109 10 -0.325600 52.190678 22.599600 24.979000 # Og 
326 109 5 0.651200 52.190678 22.599600 23.819000 # Cg 
327 109 10 -0.325600 52.190678 22.599600 22.659000 # Og 
328 110 10 -0.325600 52.190678 22.599600 25.315001 # Og 
329 110 5 0.651200 52.190678 22.599600 24.155001 # Cg 
330 110 10 -0.325600 52.190678 22.599600 22.995001 # Og 
331 111 10 -0.325600 52.190678 22.599600 25.651001 # Og 
332 111 5 0.651200 52.190678 22.599600 24.491001 # Cg 
333 111 10 -0.325600 52.190678 22.599600 23.331001 # Og 
334 112 10 -0.325600 52.190678 22.599600 25.986000 # Og 
335 112 5 0.651200 52.190678 22.599600 24.826000 # Cg 
336 112 10 -0.325600 52.190678 22.599600 23.666000 # Og 
337 113 10 -0.325600 52.190678 22.599600 26.322001 # Og 
338 113 5 0.651200 52.190678 22.599600 25.162001 # Cg 
339 113 10 -0.325600 52.190678 22.599600 24.002001 # Og 
340 114 10 -0.325600 52.190678 22.599600 26.658001 # Og 
341 114 5 0.651200 52.190678 22.599600 25.498001 # Cg 
342 114 10 -0.325600 52.190678 22.599600 24.338001 # Og 
343 115 10 -0.325600 52.190678 22.599600 26.993999 # Og 
344 115 5 0.651200 52.190678 22.599600 25.834000 # Cg 
345 115 10 -0.325600 52.190678 22.599600 24.674000 # Og 
346 116 10 -0.325600 52.190678 22.599600 27.329000 # Og 
347 116 5 0.651200 52.190678 22.599600 26.169001 # Cg 
348 116 10 -0.325600 52.190678 22.599600 25.009001 # Og 
349 117 10 -0.325600 52.190678 22.599600 0.138000 # Og 
350 117 5 0.651200 52.190678 22.599600 26.505001 # Cg 
351 117 10 -0.325600 52.190678 22.599600 25.345001 # Og 
352 118 10 -0.325600 52.190678 22.599600 0.474000 # Og 
353 118 5 0.651200 52.190678 22.599600 26.841000 # Cg 
354 118 10 -0.325600 52.190678 22.599600 25.681000 # Og 
355 119 10 -0.325600 52.190678 22.599600 0.809000 # Og 
356 119 5 0.651200 52.190678 22.599600 27.176001 # Cg 
357 119 10 -0.325600 52.190678 22.599600 26.016001 # Og 
358 120 10 -0.325600 52.190678 22.599600 1.145000 # Og 
359 120 5 0.651200 52.190678 22.599600 27.512001 # Cg 
360 120 10 -0.325600 52.190678 22.599600 26.352001 # Og 
361 121 10 -0.325600 52.190678 22.599600 1.481000 # Og 
362 121 5 0.651200 52.190678 22.599600 0.321000 # Cg 
363 121 10 -0.325600 52.190678 22.599600 26.688000 # Og 
364 122 10 -0.325600 52.190678 22.599600 1.816000 # Og 
365 122 5 0.651200 52.190678 22.599600 0.656000 # Cg 
366 122 10 -0.325600 52.190678 22.599600 27.023001 # Og 
367 123 10 -0.325600 52.190678 22.599600 2.152000 # Og 
368 123 5 0.651200 52.190678 22.599600 0.992000 # Cg 
369 123 10 -0.325600 52.190678 22.599600 27.359001 # Og 
370 124 10 -0.325600 52.190678 22.599600 2.488000 # Og 
371 124 5 0.651200 52.190678 22.599600 1.328000 # Cg 
372 124 10 -0.325600 52.190678 22.599600 0.168000 # Og 
373 125 10 -0.325600 52.190678 22.599600 2.824000 # Og 
374 125 5 0.651200 52.190678 22.599600 1.664000 # Cg 
375 125 10 -0.325600 52.190678 22.599600 0.504000 # Og 
376 126 10 -0.325600 52.190678 22.599600 3.159000 # Og 
377 126 5 0.651200 52.190678 22.599600 1.999000 # Cg 
378 126 10 -0.325600 52.190678 22.599600 0.839000 # Og 
379 127 10 -0.325600 52.190678 22.599600 3.495000 # Og 
380 127 5 0.651200 52.190678 22.599600 2.335000 # Cg 
381 127 10 -0.325600 52.190678 22.599600 1.175000 # Og 
382 128 10 -0.325600 52.190678 22.599600 3.831000 # Og 
383 128 5 0.651200 52.190678 22.599600 2.671000 # Cg 
384 128 10 -0.325600 52.190678 22.599600 1.511000 # Og 
385 129 10 -0.325600 52.190678 22.599600 4.166000 # Og 
386 129 5 0.651200 52.190678 22.599600 3.006000 # Cg 
387 129 10 -0.325600 52.190678 22.599600 1.846000 # Og 
388 130 10 -0.325600 52.190678 22.599600 4.502000 # Og 
389 130 5 0.651200 52.190678 22.599600 3.342000 # Cg 
390 130 10 -0.325600 52.190678 22.599600 2.182000 # Og 
391 131 10 -0.325600 52.190678 22.599600 4.838000 # Og 
392 131 5 0.651200 52.190678 22.599600 3.678000 # Cg 
393 131 10 -0.325600 52.190678 22.599600 2.518000 # Og 
394 132 10 -0.325600 52.190678 22.599600 5.173000 # Og 
395 132 5 0.651200 52.190678 22.599600 4.013000 # Cg 
396 132 10 -0.325600 52.190678 22.599600 2.853000 # Og 
397 133 10 -0.325600 52.190678 22.599600 5.509000 # Og 
398 133 5 0.651200 52.190678 22.599600 4.349000 # Cg 
399 133 10 -0.325600 52.190678 22.599600 3.189000 # Og 
400 134 10 -0.325600 52.190678 22.599600 5.845000 # Og 
401 134 5 0.651200 52.190678 22.599600 4.685000 # Cg 
402 134 10 -0.325600 52.190678 22.599600 3.525000 # Og 
403 135 10 -0.325600 52.190678 22.599600 6.181000 # Og 
404 135 5 0.651200 52.190678 22.599600 5.021000 # Cg 
405 135 10 -0.325600 52.190678 22.599600 3.861000 # Og 
406 136 10 -0.325600 52.190678 22.599600 6.516000 # Og 
407 136 5 0.651200 52.190678 22.599600 5.356000 # Cg 
408 136 10 -0.325600 52.190678 22.599600 4.196000 # Og 
409 137 10 -0.325600 52.190678 22.599600 6.852000 # Og 
410 137 5 0.651200 52.190678 22.599600 5.692000 # Cg 
411 137 10 -0.325600 52.190678 22.599600 4.532000 # Og 
412 138 10 -0.325600 52.190678 22.599600 7.188000 # Og 
413 138 5 0.651200 52.190678 22.599600 6.028000 # Cg 
414 138 10 -0.325600 52.190678 22.599600 4.868000 # Og 
415 139 10 -0.325600 52.190678 22.599600 7.523000 # Og 
416 139 5 0.651200 52.190678 22.599600 6.363000 # Cg 
417 139 10 -0.325600 52.190678 22.599600 5.203000 # Og 
418 140 10 -0.325600 52.190678 22.599600 7.859000 # Og 
419 140 5 0.651200 52.190678 22.599600 6.699000 # Cg 
420 140 10 -0.325600 52.190678 22.599600 5.539000 # Og 
421 141 10 -0.325600 52.190678 22.599600 8.195000 # Og 
422 141 5 0.651200 52.190678 22.599600 7.035000 # Cg 
423 141 10 -0.325600 52.190678 22.599600 5.875000 # Og 
424 142 10 -0.325600 52.190678 22.599600 8.530000 # Og 
425 142 5 0.651200 52.190678 22.599600 7.370000 # Cg 
426 142 10 -0.325600 52.190678 22.599600 6.210000 # Og 
427 143 10 -0.325600 52.190678 22.599600 8.866000 # Og 
428 143 5 0.651200 52.190678 22.599600 7.706000 # Cg 
429 143 10 -0.325600 52.190678 22.599600 6.546000 # Og 
430 144 10 -0.325600 52.190678 22.599600 9.202000 # Og 
431 144 5 0.651200 52.190678 22.599600 8.042000 # Cg 
432 144 10 -0.325600 52.190678 22.599600 6.882000 # Og 
433 145 10 -0.325600 52.190678 22.599600 9.538000 # Og 
434 145 5 0.651200 52.190678 22.599600 8.378000 # Cg 
435 145 10 -0.325600 52.190678 22.599600 7.218000 # Og 
436 146 10 -0.325600 52.190678 22.599600 9.873000 # Og 
437 146 5 0.651200 52.190678 22.599600 8.713000 # Cg 
438 146 10 -0.325600 52.190678 22.599600 7.553000 # Og 
439 147 10 -0.325600 52.190678 22.599600 10.209000 # Og 
440 147 5 0.651200 52.190678 22.599600 9.049000 # Cg 
441 147 10 -0.325600 52.190678 22.599600 7.889000 # Og 
442 148 10 -0.325600 52.190678 22.599600 10.545000 # Og 
443 148 5 0.651200 52.190678 22.599600 9.385000 # Cg 
444 148 10 -0.325600 52.190678 22.599600 8.225000 # Og 
445 149 10 -0.325600 52.190678 22.599600 10.880000 # Og 
446 149 5 0.651200 52.190678 22.599600 9.720000 # Cg 
447 149 10 -0.325600 52.190678 22.599600 8.560000 # Og 
448 150 10 -0.325600 52.190678 22.599600 11.216000 # Og 
449 150 5 0.651200 52.190678 22.599600 10.056000 # Cg 
450 150 10 -0.325600 52.190678 22.599600 8.896000 # Og 
451 151 10 -0.325600 52.190678 22.599600 11.552000 # Og 
452 151 5 0.651200 52.190678 22.599600 10.392000 # Cg 
453 151 10 -0.325600 52.190678 22.599600 9.232000 # Og 
454 152 10 -0.325600 52.190678 22.599600 11.887000 # Og 
455 152 5 0.651200 52.190678 22.599600 10.727000 # Cg 
456 152 10 -0.325600 52.190678 22.599600 9.567000 # Og 
457 153 10 -0.325600 52.190678 22.599600 12.223000 # Og 
458 153 5 0.651200 52.190678 22.599600 11.063000 # Cg 
459 153 10 -0.325600 52.190678 22.599600 9.903000 # Og 
460 154 10 -0.325600 52.190678 22.599600 12.559000 # Og 
461 154 5 0.651200 52.190678 22.599600 11.399000 # Cg 
462 154 10 -0.325600 52.190678 22.599600 10.239000 # Og 
463 155 10 -0.325600 52.190678 22.599600 12.894000 # Og 
464 155 5 0.651200 52.190678 22.599600 11.734000 # Cg 
465 155 10 -0.325600 52.190678 22.599600 10.574000 # Og 
466 156 10 -0.325600 52.190678 22.599600 13.230000 # Og 
467 156 5 0.651200 52.190678 22.599600 12.070000 # Cg 
468 156 10 -0.325600 52.190678 22.599600 10.910000 # Og 
469 157 10 -0.325600 52.190678 22.599600 13.566000 # Og 
470 157 5 0.651200 52.190678 22.599600 12.406000 # Cg 
471 157 10 -0.325600 52.190678 22.599600 11.246000 # Og 
472 158 10 -0.325600 52.190678 22.599600 13.902000 # Og 
473 158 5 0.651200 52.190678 22.599600 12.742000 # Cg 
474 158 10 -0.325600 52.190678 22.599600 11.582000 # Og 
475 159 10 -0.325600 52.190678 22.599600 14.237000 # Og 
476 159 5 0.651200 52.190678 22.599600 13.077000 # Cg 
477 159 10 -0.325600 52.190678 22.599600 11.917000 # Og 
478 160 10 -0.325600 52.190678 22.599600 14.573000 # Og 
479 160 5 0.651200 52.190678 22.599600 13.413000 # Cg 
480 160 10 -0.325600 52.190678 22.599600 12.253000 # Og 
481 161 10 -0.325600 52.190678 22.599600 14.909000 # Og 
482 161 5 0.651200 52.190678 22.599600 13.749000 # Cg 
483 161 10 -0.325600 52.190678 22.599600 12.589000 # Og 
484 162 10 -0.325600 52.190678 22.599600 15.244000 # Og 
485 162 5 0.651200 52.190678 22.599600 14.084000 # Cg 
486 162 10 -0.325600 52.190678 22.599600 12.924000 # Og 
487 163 10 -0.325600 52.190678 22.599600 15.580000 # Og 
488 163 5 0.651200 52.190678 22.599600 14.420000 # Cg 
489 163 10 -0.325600 52.190678 22.599600 13.260000 # Og 
490 164 10 -0.325600 52.190678 22.599600 15.916000 # Og 
491 164 5 0.651200 52.190678 22.599600 14.756000 # Cg 
492 164 10 -0.325600 52.190678 22.599600 13.596000 # Og 
493 165 10 -0.325600 26.095676 45.197601 16.250999 # Og 
494 165 5 0.651200 26.095676 45.197601 15.091001 # Cg 
495 165 10 -0.325600 26.095676 45.197601 13.931001 # Og 
496 166 10 -0.325600 26.095676 45.197601 16.587002 # Og 
497 166 5 0.651200 26.095676 45.197601 15.427000 # Cg 
498 166 10 -0.325600 26.095676 45.197601 14.267000 # Og 
499 167 10 -0.325600 26.095676 45.197601 16.923000 # Og 
500 167 5 0.651200 26.095676 45.197601 15.763000 # Cg 
501 167 10 -0.325600 26.095676 45.197601 14.603001 # Og 
502 168 10 -0.325600 26.095676 45.197601 17.257999 # Og 
503 168 5 0.651200 26.095676 45.197601 16.098000 # Cg 
504 168 10 -0.325600 26.095676 45.197601 14.938001 # Og 
505 169 10 -0.325600 26.095676 45.197601 17.594002 # Og 
506 169 5 0.651200 26.095676 45.197601 16.434000 # Cg 
507 169 10 -0.325600 26.095676 45.197601 15.274000 # Og 
508 170 10 -0.325600 26.095676 45.197601 17.930000 # Og 
509 170 5 0.651200 26.095676 45.197601 16.770000 # Cg 
510 170 10 -0.325600 26.095676 45.197601 15.610001 # Og 
511 171 10 -0.325600 26.095676 45.197601 18.264999 # Og 
512 171 5 0.651200 26.095676 45.197601 17.105000 # Cg 
513 171 10 -0.325600 26.095676 45.197601 15.945001 # Og 
514 172 10 -0.325600 26.095676 45.197601 18.601002 # Og 
515 172 5 0.651200 26.095676 45.197601 17.441000 # Cg 
516 172 10 -0.325600 26.095676 45.197601 16.281000 # Og 
517 173 10 -0.325600 26.095676 45.197601 18.937000 # Og 
518 173 5 0.651200 26.095676 45.197601 17.777000 # Cg 
519 173 10 -0.325600 26.095676 45.197601 16.617001 # Og 
520 174 10 -0.325600 26.095676 45.197601 19.273001 # Og 
521 174 5 0.651200 26.095676 45.197601 18.113001 # Cg 
522 174 10 -0.325600 26.095676 45.197601 16.952999 # Og 
523 175 10 -0.325600 26.095676 45.197601 19.608000 # Og 
524 175 5 0.651200 26.095676 45.197601 18.448000 # Cg 
525 175 10 -0.325600 26.095676 45.197601 17.288000 # Og 
526 176 10 -0.325600 26.095676 45.197601 19.944000 # Og 
527 176 5 0.651200 26.095676 45.197601 18.784000 # Cg 
528 176 10 -0.325600 26.095676 45.197601 17.624001 # Og 
529 177 10 -0.325600 26.095676 45.197601 20.280001 # Og 
530 177 5 0.651200 26.095676 45.197601 19.120001 # Cg 
531 177 10 -0.325600 26.095676 45.197601 17.959999 # Og 