LAMMPS data file. CGCMM style. atom_style full generated by VMD/TopoTools v1.5 on Sat Apr 22 10:14:52 PDT 2017
 1352 atoms
 0 bonds
 0 angles
 0 dihedrals
 0 impropers
 10 atom types
 0 bond types
 0 angle types
 0 dihedral types
 0 improper types
 0.444700 26.558700  xlo xhi
 0.314250 45.544250  ylo yhi
 -0.000021 27.666979  zlo zhi

# Pair Coeffs
#
# 1  CH4
# 2  Ca
# 3  Cb
# 4  Cc
# 5  Cd
# 6  H
# 7  Mg
# 8  Oa
# 9  Ob
# 10  Oc

 Masses

 1 16.040001 # CH4
 2 12.011000 # Ca
 3 12.011000 # Cb
 4 12.011000 # Cc
 5 12.011000 # Cd
 6 1.008000 # H
 7 24.305000 # Mg
 8 15.999000 # Oa
 9 15.999000 # Ob
 10 15.999000 # Oc

 Atoms

1 1 1 0.000000 26.114401 45.230499 14.822000 # CH4 
2 2 1 0.000000 26.114401 45.230499 16.798000 # CH4 
3 3 1 0.000000 26.114401 45.230499 18.774000 # CH4 
4 4 1 0.000000 26.114401 45.230499 20.750000 # CH4 
5 5 1 0.000000 26.114401 45.230499 22.726000 # CH4 
6 6 1 0.000000 26.114401 45.230499 24.702999 # CH4 
7 7 1 0.000000 26.114401 45.230499 26.678999 # CH4 
8 8 1 0.000000 26.114401 45.230499 0.988000 # CH4 
9 9 1 0.000000 26.114401 45.230499 2.964000 # CH4 
10 10 1 0.000000 26.114401 45.230499 4.941000 # CH4 
11 11 1 0.000000 26.114401 45.230499 6.917000 # CH4 
12 12 1 0.000000 26.114401 45.230499 8.893000 # CH4 
13 13 1 0.000000 26.114401 45.230499 10.869000 # CH4 
14 14 1 0.000000 26.114401 45.230499 12.845000 # CH4 
15 15 1 0.000000 26.114401 22.614500 14.822000 # CH4 
16 16 1 0.000000 26.114401 22.614500 16.798000 # CH4 
17 17 1 0.000000 26.114401 22.614500 18.774000 # CH4 
18 18 1 0.000000 26.114401 22.614500 20.750000 # CH4 
19 19 1 0.000000 26.114401 22.614500 22.726000 # CH4 
20 20 1 0.000000 26.114401 22.614500 24.702999 # CH4 
21 21 1 0.000000 26.114401 22.614500 26.678999 # CH4 
22 22 1 0.000000 26.114401 22.614500 0.988000 # CH4 
23 23 1 0.000000 26.114401 22.614500 2.964000 # CH4 
24 24 1 0.000000 26.114401 22.614500 4.941000 # CH4 
25 25 1 0.000000 26.114401 22.614500 6.917000 # CH4 
26 26 1 0.000000 26.114401 22.614500 8.893000 # CH4 
27 27 1 0.000000 26.114401 22.614500 10.869000 # CH4 
28 28 1 0.000000 26.114401 22.614500 12.845000 # CH4 
29 29 1 0.000000 13.056400 45.230499 14.822000 # CH4 
30 30 1 0.000000 13.056400 45.230499 16.798000 # CH4 
31 31 1 0.000000 13.056400 45.230499 18.774000 # CH4 
32 32 1 0.000000 13.056400 45.230499 20.750000 # CH4 
33 33 1 0.000000 13.056400 45.230499 22.726000 # CH4 
34 34 1 0.000000 13.056400 45.230499 24.702999 # CH4 
35 35 1 0.000000 13.056400 45.230499 26.678999 # CH4 
36 36 1 0.000000 13.056400 45.230499 0.988000 # CH4 
37 37 1 0.000000 13.056400 45.230499 2.964000 # CH4 
38 38 1 0.000000 13.056400 45.230499 4.941000 # CH4 
39 39 1 0.000000 13.056400 45.230499 6.917000 # CH4 
40 40 1 0.000000 13.056400 45.230499 8.893000 # CH4 
41 41 1 0.000000 13.056400 45.230499 10.869000 # CH4 
42 42 1 0.000000 13.056400 45.230499 12.845000 # CH4 
43 43 1 0.000000 13.056400 22.614500 14.822000 # CH4 
44 44 1 0.000000 13.056400 22.614500 16.798000 # CH4 
45 45 1 0.000000 13.056400 22.614500 18.774000 # CH4 
46 46 1 0.000000 13.056400 22.614500 20.750000 # CH4 
47 47 1 0.000000 13.056400 22.614500 22.726000 # CH4 
48 48 1 0.000000 13.056400 22.614500 24.702999 # CH4 
49 49 1 0.000000 13.056400 22.614500 26.678999 # CH4 
50 50 1 0.000000 13.056400 22.614500 0.988000 # CH4 
51 51 1 0.000000 13.056400 22.614500 2.964000 # CH4 
52 52 1 0.000000 13.056400 22.614500 4.941000 # CH4 
53 53 1 0.000000 13.056400 22.614500 6.917000 # CH4 
54 54 1 0.000000 13.056400 22.614500 8.893000 # CH4 
55 55 1 0.000000 13.056400 22.614500 10.869000 # CH4 
56 56 1 0.000000 13.056400 22.614500 12.845000 # CH4 
57 57 7 0.000000 5.314000 7.966000 21.684460 # Mg LIG
58 57 7 0.000000 18.371000 30.580999 21.684460 # Mg LIG
59 57 7 0.000000 4.242000 6.491000 19.378460 # Mg LIG
60 57 7 0.000000 17.299000 29.106001 19.378460 # Mg LIG
61 57 7 0.000000 3.501000 8.158000 23.990459 # Mg LIG
62 57 7 0.000000 16.558001 30.773001 23.990459 # Mg LIG
63 57 7 0.000000 7.743000 14.649000 19.815460 # Mg LIG
64 57 7 0.000000 20.799000 37.264000 19.815460 # Mg LIG
65 57 7 0.000000 8.815000 16.124001 22.120461 # Mg LIG
66 57 7 0.000000 21.872000 38.738998 22.120461 # Mg LIG
67 57 7 0.000000 9.556000 14.457000 17.509460 # Mg LIG
68 57 7 0.000000 22.613001 37.071999 17.509460 # Mg LIG
69 57 7 0.000000 8.815000 31.200001 19.815460 # Mg LIG
70 57 7 0.000000 21.872000 8.585000 19.815460 # Mg LIG
71 57 7 0.000000 9.556000 29.534000 22.120461 # Mg LIG
72 57 7 0.000000 22.613001 6.919000 22.120461 # Mg LIG
73 57 7 0.000000 4.242000 21.568001 23.990459 # Mg LIG
74 57 7 0.000000 17.299000 44.182999 23.990459 # Mg LIG
75 57 7 0.000000 8.815000 1.047000 17.509460 # Mg LIG
76 57 7 0.000000 21.872000 23.662001 17.509460 # Mg LIG
77 57 7 0.000000 5.314000 38.118999 23.990459 # Mg LIG
78 57 7 0.000000 18.371000 15.504000 23.990459 # Mg LIG
79 57 7 0.000000 7.743000 44.801998 22.120461 # Mg LIG
80 57 7 0.000000 20.799000 22.187000 22.120461 # Mg LIG
81 57 7 0.000000 9.556000 44.611000 19.815460 # Mg LIG
82 57 7 0.000000 22.613001 21.996000 19.815460 # Mg LIG
83 57 7 0.000000 3.501000 38.311001 19.378460 # Mg LIG
84 57 7 0.000000 16.558001 15.696000 19.378460 # Mg LIG
85 57 7 0.000000 4.242000 36.645000 21.684460 # Mg LIG
86 57 7 0.000000 17.299000 14.030000 21.684460 # Mg LIG
87 57 7 0.000000 5.314000 23.042999 19.378460 # Mg LIG
88 57 7 0.000000 18.371000 0.428000 19.378460 # Mg LIG
89 57 7 0.000000 3.501000 23.233999 21.684460 # Mg LIG
90 57 7 0.000000 16.558001 0.619000 21.684460 # Mg LIG
91 57 7 0.000000 7.743000 29.726000 17.509460 # Mg LIG
92 57 7 0.000000 20.799000 7.111000 17.509460 # Mg LIG
93 57 2 0.000000 5.704000 9.170000 19.055460 # Ca LIG
94 57 2 0.000000 18.761000 31.785000 19.055460 # Ca LIG
95 57 3 0.000000 6.098000 10.247000 18.115459 # Cb LIG
96 57 3 0.000000 19.155001 32.862000 18.115459 # Cb LIG
97 57 5 0.000000 6.932000 11.258000 18.610460 # Cd LIG
98 57 5 0.000000 19.989000 33.873001 18.610460 # Cd LIG
99 57 6 0.000000 7.248000 11.206000 19.650459 # H LIG
100 57 6 0.000000 20.305000 33.820999 19.650459 # H LIG
101 57 9 0.000000 6.149000 9.140000 20.245461 # Ob LIG
102 57 9 0.000000 19.205999 31.754999 20.245461 # Ob LIG
103 57 8 0.000000 4.881000 8.269000 18.627460 # Oa LIG
104 57 8 0.000000 17.938000 30.884001 18.627460 # Oa LIG
105 57 10 0.000000 8.183000 13.257000 18.410460 # Oc LIG
106 57 10 0.000000 21.240000 35.872002 18.410460 # Oc LIG
107 57 8 0.000000 4.721000 6.715000 23.238461 # Oa LIG
108 57 8 0.000000 17.777000 29.330000 23.238461 # Oa LIG
109 57 8 0.000000 3.455000 7.631000 20.933460 # Oa LIG
110 57 8 0.000000 16.511000 30.246000 20.933460 # Oa LIG
111 57 10 0.000000 4.874000 9.358000 23.088459 # Oc LIG
112 57 10 0.000000 17.930000 31.973000 23.088459 # Oc LIG
113 57 10 0.000000 5.668000 6.177000 20.783461 # Oc LIG
114 57 10 0.000000 18.725000 28.792000 20.783461 # Oc LIG
115 57 4 0.000000 5.672000 10.284000 23.664459 # Cc LIG
116 57 4 0.000000 18.729000 32.898998 23.664459 # Cc LIG
117 57 2 0.000000 7.353000 13.445000 22.444460 # Ca LIG
118 57 2 0.000000 20.409000 36.060001 22.444460 # Ca LIG
119 57 3 0.000000 6.959000 12.368000 23.384460 # Cb LIG
120 57 3 0.000000 20.016001 34.983002 23.384460 # Cb LIG
121 57 4 0.000000 7.384000 12.331000 17.835461 # Cc LIG
122 57 4 0.000000 20.441000 34.945999 17.835461 # Cc LIG
123 57 5 0.000000 6.125000 11.357000 22.889460 # Cd LIG
124 57 5 0.000000 19.181000 33.972000 22.889460 # Cd LIG
125 57 6 0.000000 5.809000 11.409000 21.849461 # H LIG
126 57 6 0.000000 18.865999 34.023998 21.849461 # H LIG
127 57 9 0.000000 6.908000 13.475000 21.254459 # Ob LIG
128 57 9 0.000000 19.965000 36.090000 21.254459 # Ob LIG
129 57 8 0.000000 8.175000 14.346000 22.871460 # Oa LIG
130 57 8 0.000000 21.232000 36.960999 22.871460 # Oa LIG
131 57 8 0.000000 8.336000 15.900000 18.260460 # Oa LIG
132 57 8 0.000000 21.393000 38.514999 18.260460 # Oa LIG
133 57 8 0.000000 9.602000 14.984000 20.566460 # Oa LIG
134 57 8 0.000000 22.659000 37.598999 20.566460 # Oa LIG
135 57 10 0.000000 7.389000 16.438000 20.716461 # Oc LIG
136 57 10 0.000000 20.445999 39.053001 20.716461 # Oc LIG
137 57 8 0.000000 9.602000 30.059999 18.260460 # Oa LIG
138 57 8 0.000000 22.659000 7.445000 18.260460 # Oa LIG
139 57 8 0.000000 8.336000 30.976999 22.871460 # Oa LIG
140 57 8 0.000000 21.393000 8.362000 22.871460 # Oa LIG
141 57 8 0.000000 4.721000 21.791000 20.933460 # Oa LIG
142 57 8 0.000000 17.777000 44.405998 20.933460 # Oa LIG
143 57 10 0.000000 5.668000 21.254000 18.477459 # Oc LIG
144 57 10 0.000000 18.725000 43.868999 18.477459 # Oc LIG
145 57 8 0.000000 8.336000 0.824000 20.566460 # Oa LIG
146 57 8 0.000000 21.393000 23.438999 20.566460 # Oa LIG
147 57 10 0.000000 7.389000 1.361000 23.021460 # Oc LIG
148 57 10 0.000000 20.445999 23.976000 23.021460 # Oc LIG
149 57 10 0.000000 4.874000 39.512001 18.477459 # Oc LIG
150 57 10 0.000000 17.930000 16.896999 18.477459 # Oc LIG
151 57 2 0.000000 5.704000 39.324001 21.360460 # Ca LIG
152 57 2 0.000000 18.761000 16.709000 21.360460 # Ca LIG
153 57 3 0.000000 6.098000 40.401001 20.421459 # Cb LIG
154 57 3 0.000000 19.155001 17.785999 20.421459 # Cb LIG
155 57 4 0.000000 5.672000 40.438000 19.053459 # Cc LIG
156 57 4 0.000000 18.729000 17.823000 19.053459 # Cc LIG
157 57 5 0.000000 6.932000 41.410999 20.916460 # Cd LIG
158 57 5 0.000000 19.989000 18.796000 20.916460 # Cd LIG
159 57 6 0.000000 7.248000 41.359001 21.955460 # H LIG
160 57 6 0.000000 20.305000 18.743999 21.955460 # H LIG
161 57 9 0.000000 6.149000 39.292999 22.550461 # Ob LIG
162 57 9 0.000000 19.205999 16.677999 22.550461 # Ob LIG
163 57 8 0.000000 4.882000 38.423000 20.933460 # Oa LIG
164 57 8 0.000000 17.938000 15.808000 20.933460 # Oa LIG
165 57 3 0.000000 6.959000 42.521000 18.773460 # Cb LIG
166 57 3 0.000000 20.016001 19.906000 18.773460 # Cb LIG
167 57 4 0.000000 7.384000 42.484001 20.140461 # Cc LIG
168 57 4 0.000000 20.441000 19.868999 20.140461 # Cc LIG
169 57 5 0.000000 6.125000 41.509998 18.277460 # Cd LIG
170 57 5 0.000000 19.181000 18.895000 18.277460 # Cd LIG
171 57 8 0.000000 8.175000 44.499001 18.260460 # Oa LIG
172 57 8 0.000000 21.232000 21.884001 18.260460 # Oa LIG
173 57 10 0.000000 8.183000 43.410000 20.716461 # Oc LIG
174 57 10 0.000000 21.240000 20.795000 20.716461 # Oc LIG
175 57 10 0.000000 5.668000 36.330002 23.088459 # Oc LIG
176 57 10 0.000000 18.725000 13.715000 23.088459 # Oc LIG
177 57 2 0.000000 7.353000 43.598000 17.833460 # Ca LIG
178 57 2 0.000000 20.409000 20.983000 17.833460 # Ca LIG
179 57 9 0.000000 6.908000 43.627998 23.559460 # Ob LIG
180 57 9 0.000000 19.965000 21.013000 23.559460 # Ob LIG
181 57 8 0.000000 9.602000 45.137001 22.871460 # Oa LIG
182 57 8 0.000000 22.659000 22.521999 22.871460 # Oa LIG
183 57 8 0.000000 4.721000 36.868000 18.627460 # Oa LIG
184 57 8 0.000000 17.778000 14.253000 18.627460 # Oa LIG
185 57 8 0.000000 3.455000 37.785000 23.238461 # Oa LIG
186 57 8 0.000000 16.511000 15.170000 23.238461 # Oa LIG
187 57 10 0.000000 2.515000 22.156000 23.088459 # Oc LIG
188 57 10 0.000000 15.572000 44.771000 23.088459 # Oc LIG
189 57 4 0.000000 1.314000 22.385000 23.664459 # Cc LIG
190 57 4 0.000000 14.371000 45.000000 23.664459 # Cc LIG
191 57 2 0.000000 10.794000 44.875000 22.444460 # Ca LIG
192 57 2 0.000000 23.851000 22.260000 22.444460 # Ca LIG
193 57 3 0.000000 11.924000 45.073002 23.384460 # Cb LIG
194 57 3 0.000000 24.980000 22.458000 23.384460 # Cb LIG
195 57 5 0.000000 0.159000 22.240999 22.889460 # Cd LIG
196 57 5 0.000000 13.216000 44.855999 22.889460 # Cd LIG
197 57 6 0.000000 0.271000 21.941000 21.849461 # H LIG
198 57 6 0.000000 13.328000 44.556000 21.849461 # H LIG
199 57 9 0.000000 10.990000 44.474998 21.254459 # Ob LIG
200 57 9 0.000000 24.047001 21.860001 21.254459 # Ob LIG
201 57 4 0.000000 6.070000 35.174999 23.664459 # Cc LIG
202 57 4 0.000000 19.127001 12.560000 23.664459 # Cc LIG
203 57 2 0.000000 7.967000 32.139999 22.444460 # Ca LIG
204 57 2 0.000000 21.024000 9.525000 22.444460 # Ca LIG
205 57 3 0.000000 7.231000 33.020000 23.384460 # Cb LIG
206 57 3 0.000000 20.288000 10.405000 23.384460 # Cb LIG
207 57 5 0.000000 6.773000 34.248001 22.889460 # Cd LIG
208 57 5 0.000000 19.830000 11.633000 22.889460 # Cd LIG
209 57 6 0.000000 6.977000 34.494999 21.849461 # H LIG
210 57 6 0.000000 20.033001 11.880000 21.849461 # H LIG
211 57 9 0.000000 8.216000 32.509998 21.254459 # Ob LIG
212 57 9 0.000000 21.273001 9.895000 21.254459 # Ob LIG
213 57 10 0.000000 10.541000 30.612000 20.716461 # Oc LIG
214 57 10 0.000000 23.598000 7.997000 20.716461 # Oc LIG
215 57 2 0.000000 5.090000 35.705002 19.055460 # Ca LIG
216 57 2 0.000000 18.146000 13.090000 19.055460 # Ca LIG
217 57 3 0.000000 5.826000 34.825001 18.115459 # Cb LIG
218 57 3 0.000000 18.882000 12.210000 18.115459 # Cb LIG
219 57 5 0.000000 6.284000 33.597000 18.610460 # Cd LIG
220 57 5 0.000000 19.341000 10.982000 18.610460 # Cd LIG
221 57 6 0.000000 6.080000 33.349998 19.650459 # H LIG
222 57 6 0.000000 19.136999 10.735000 19.650459 # H LIG
223 57 9 0.000000 4.841000 35.334999 20.245461 # Ob LIG
224 57 9 0.000000 17.898001 12.720000 20.245461 # Ob LIG
225 57 10 0.000000 2.515000 37.233002 20.783461 # Oc LIG
226 57 10 0.000000 15.572000 14.618000 20.783461 # Oc LIG
227 57 9 0.000000 2.067000 38.446999 17.939461 # Ob LIG
228 57 9 0.000000 15.124000 15.832000 17.939461 # Ob LIG
229 57 2 0.000000 2.263000 38.046001 23.666460 # Ca LIG
230 57 2 0.000000 15.320000 15.431000 23.666460 # Ca LIG
231 57 3 0.000000 1.133000 37.848999 22.726460 # Cb LIG
232 57 3 0.000000 14.190000 15.234000 22.726460 # Cb LIG
233 57 4 0.000000 1.314000 37.462002 21.358459 # Cc LIG
234 57 4 0.000000 14.371000 14.847000 21.358459 # Cc LIG
235 57 5 0.000000 12.898000 15.451000 23.221460 # Cd LIG
236 57 5 0.000000 25.954000 38.066002 23.221460 # Cd LIG
237 57 6 0.000000 12.785000 15.751000 17.344460 # H LIG
238 57 6 0.000000 25.841999 38.366001 17.344460 # H LIG
239 57 2 0.000000 10.794000 14.722000 20.138460 # Ca LIG
240 57 2 0.000000 23.851000 37.337002 20.138460 # Ca LIG
241 57 3 0.000000 11.924000 14.919000 21.078461 # Cb LIG
242 57 3 0.000000 24.980000 37.534000 21.078461 # Cb LIG
243 57 4 0.000000 11.743000 15.306000 22.446461 # Cc LIG
244 57 4 0.000000 24.799000 37.921001 22.446461 # Cc LIG
245 57 5 0.000000 0.159000 37.317001 20.583460 # Cd LIG
246 57 5 0.000000 13.216000 14.702000 20.583460 # Cd LIG
247 57 6 0.000000 0.272000 37.016998 19.543461 # H LIG
248 57 6 0.000000 13.328000 14.402000 19.543461 # H LIG
249 57 9 0.000000 10.990000 14.322000 18.948460 # Ob LIG
250 57 9 0.000000 24.047001 36.937000 18.948460 # Ob LIG
251 57 10 0.000000 10.541000 15.535000 23.021460 # Oc LIG
252 57 10 0.000000 23.598000 38.150002 23.021460 # Oc LIG
253 57 9 0.000000 4.841000 5.182000 17.939461 # Ob LIG
254 57 9 0.000000 17.898001 27.797001 17.939461 # Ob LIG
255 57 10 0.000000 2.515000 7.080000 18.477459 # Oc LIG
256 57 10 0.000000 15.572000 29.695000 18.477459 # Oc LIG
257 57 2 0.000000 5.090000 5.552000 23.666460 # Ca LIG
258 57 2 0.000000 18.146000 28.167000 23.666460 # Ca LIG
259 57 3 0.000000 5.826000 4.672000 22.726460 # Cb LIG
260 57 3 0.000000 18.882000 27.287001 22.726460 # Cb LIG
261 57 4 0.000000 6.070000 5.022000 21.358459 # Cc LIG
262 57 4 0.000000 19.127001 27.636999 21.358459 # Cc LIG
263 57 5 0.000000 6.284000 3.444000 23.221460 # Cd LIG
264 57 5 0.000000 19.340000 26.059000 23.221460 # Cd LIG
265 57 6 0.000000 6.080000 3.197000 17.344460 # H LIG
266 57 6 0.000000 19.136999 25.812000 17.344460 # H LIG
267 57 2 0.000000 7.967000 1.987000 20.138460 # Ca LIG
268 57 2 0.000000 21.024000 24.601999 20.138460 # Ca LIG
269 57 3 0.000000 7.231000 2.866000 21.078461 # Cb LIG
270 57 3 0.000000 20.288000 25.481001 21.078461 # Cb LIG
271 57 4 0.000000 6.987000 2.516000 22.446461 # Cc LIG
272 57 4 0.000000 20.042999 25.131001 22.446461 # Cc LIG
273 57 5 0.000000 6.773000 4.094000 20.583460 # Cd LIG
274 57 5 0.000000 19.830000 26.709000 20.583460 # Cd LIG
275 57 6 0.000000 6.977000 4.341000 19.543461 # H LIG
276 57 6 0.000000 20.033001 26.955999 19.543461 # H LIG
277 57 9 0.000000 8.216000 2.357000 18.948460 # Ob LIG
278 57 9 0.000000 21.273001 24.972000 18.948460 # Ob LIG
279 57 2 0.000000 2.263000 7.893000 21.360460 # Ca LIG
280 57 2 0.000000 15.320000 30.507999 21.360460 # Ca LIG
281 57 3 0.000000 1.133000 7.696000 20.421459 # Cb LIG
282 57 3 0.000000 14.190000 30.311001 20.421459 # Cb LIG
283 57 4 0.000000 1.314000 7.309000 19.053459 # Cc LIG
284 57 4 0.000000 14.371000 29.924000 19.053459 # Cc LIG
285 57 5 0.000000 12.898000 30.528000 20.916460 # Cd LIG
286 57 5 0.000000 25.954000 7.913000 20.916460 # Cd LIG
287 57 6 0.000000 12.785000 30.827999 21.955460 # H LIG
288 57 6 0.000000 25.841999 8.213000 21.955460 # H LIG
289 57 9 0.000000 2.067000 8.293000 22.550461 # Ob LIG
290 57 9 0.000000 15.124000 30.908001 22.550461 # Ob LIG
291 57 3 0.000000 11.924000 29.996000 18.773460 # Cb LIG
292 57 3 0.000000 24.980000 7.381000 18.773460 # Cb LIG
293 57 4 0.000000 11.743000 30.382999 20.140461 # Cc LIG
294 57 4 0.000000 24.799000 7.768000 20.140461 # Cc LIG
295 57 5 0.000000 0.159000 7.164000 18.277460 # Cd LIG
296 57 5 0.000000 13.216000 29.778999 18.277460 # Cd LIG
297 57 2 0.000000 10.794000 29.799000 17.833460 # Ca LIG
298 57 2 0.000000 23.851000 7.184000 17.833460 # Ca LIG
299 57 9 0.000000 10.990000 29.398001 23.559460 # Ob LIG
300 57 9 0.000000 24.047001 6.783000 23.559460 # Ob LIG
301 57 2 0.000000 5.090000 20.628000 21.360460 # Ca LIG
302 57 2 0.000000 18.146000 43.243000 21.360460 # Ca LIG
303 57 3 0.000000 5.826000 19.749001 20.421459 # Cb LIG
304 57 3 0.000000 18.882000 42.363998 20.421459 # Cb LIG
305 57 4 0.000000 6.070000 20.099001 19.053459 # Cc LIG
306 57 4 0.000000 19.127001 42.714001 19.053459 # Cc LIG
307 57 5 0.000000 6.284000 18.521000 20.916460 # Cd LIG
308 57 5 0.000000 19.341000 41.136002 20.916460 # Cd LIG
309 57 6 0.000000 6.080000 18.274000 21.955460 # H LIG
310 57 6 0.000000 19.136999 40.889000 21.955460 # H LIG
311 57 9 0.000000 4.841000 20.257999 22.550461 # Ob LIG
312 57 9 0.000000 17.898001 42.873001 22.550461 # Ob LIG
313 57 3 0.000000 7.231000 17.943001 18.773460 # Cb LIG
314 57 3 0.000000 20.288000 40.557999 18.773460 # Cb LIG
315 57 4 0.000000 6.987000 17.593000 20.140461 # Cc LIG
316 57 4 0.000000 20.042999 40.208000 20.140461 # Cc LIG
317 57 5 0.000000 6.773000 19.171000 18.277460 # Cd LIG
318 57 5 0.000000 19.830000 41.785999 18.277460 # Cd LIG
319 57 2 0.000000 7.967000 17.063000 17.833460 # Ca LIG
320 57 2 0.000000 21.024000 39.678001 17.833460 # Ca LIG
321 57 9 0.000000 8.216000 17.433001 23.559460 # Ob LIG
322 57 9 0.000000 21.273001 40.048000 23.559460 # Ob LIG
323 57 9 0.000000 6.149000 24.216999 17.939461 # Ob LIG
324 57 9 0.000000 19.205999 1.602000 17.939461 # Ob LIG
325 57 8 0.000000 3.455000 22.708000 18.627460 # Oa LIG
326 57 8 0.000000 16.511000 0.093000 18.627460 # Oa LIG
327 57 10 0.000000 4.874000 24.434999 20.783461 # Oc LIG
328 57 10 0.000000 17.930000 1.820000 20.783461 # Oc LIG
329 57 2 0.000000 5.704000 24.247000 23.666460 # Ca LIG
330 57 2 0.000000 18.761000 1.632000 23.666460 # Ca LIG
331 57 3 0.000000 6.098000 25.323999 22.726460 # Cb LIG
332 57 3 0.000000 19.155001 2.709000 22.726460 # Cb LIG
333 57 4 0.000000 5.672000 25.361000 21.358459 # Cc LIG
334 57 4 0.000000 18.729000 2.746000 21.358459 # Cc LIG
335 57 5 0.000000 6.932000 26.334999 23.221460 # Cd LIG
336 57 5 0.000000 19.989000 3.720000 23.221460 # Cd LIG
337 57 6 0.000000 7.248000 26.282000 17.344460 # H LIG
338 57 6 0.000000 20.305000 3.667000 17.344460 # H LIG
339 57 8 0.000000 4.881000 23.346001 23.238461 # Oa LIG
340 57 8 0.000000 17.938000 0.731000 23.238461 # Oa LIG
341 57 2 0.000000 7.353000 28.521000 20.138460 # Ca LIG
342 57 2 0.000000 20.409000 5.906000 20.138460 # Ca LIG
343 57 3 0.000000 6.959000 27.444000 21.078461 # Cb LIG
344 57 3 0.000000 20.016001 4.829000 21.078461 # Cb LIG
345 57 4 0.000000 7.384000 27.407000 22.446461 # Cc LIG
346 57 4 0.000000 20.441000 4.792000 22.446461 # Cc LIG
347 57 5 0.000000 6.125000 26.434000 20.583460 # Cd LIG
348 57 5 0.000000 19.181000 3.819000 20.583460 # Cd LIG
349 57 6 0.000000 5.809000 26.486000 19.543461 # H LIG
350 57 6 0.000000 18.865999 3.871000 19.543461 # H LIG
351 57 9 0.000000 6.908000 28.552000 18.948460 # Ob LIG
352 57 9 0.000000 19.965000 5.937000 18.948460 # Ob LIG
353 57 8 0.000000 8.175000 29.422001 20.566460 # Oa LIG
354 57 8 0.000000 21.232000 6.807000 20.566460 # Oa LIG
355 57 10 0.000000 8.183000 28.333000 23.021460 # Oc LIG
356 57 10 0.000000 21.240000 5.718000 23.021460 # Oc LIG
357 57 2 0.000000 2.263000 22.969999 19.055460 # Ca LIG
358 57 2 0.000000 15.320000 0.355000 19.055460 # Ca LIG
359 57 3 0.000000 1.133000 22.771999 18.115459 # Cb LIG
360 57 3 0.000000 14.190000 0.157000 18.115459 # Cb LIG
361 57 5 0.000000 12.898000 0.374000 18.610460 # Cd LIG
362 57 5 0.000000 25.954000 22.989000 18.610460 # Cd LIG
363 57 6 0.000000 12.785000 0.674000 19.650459 # H LIG
364 57 6 0.000000 25.841999 23.289000 19.650459 # H LIG
365 57 9 0.000000 2.067000 23.370001 20.245461 # Ob LIG
366 57 9 0.000000 15.124000 0.755000 20.245461 # Ob LIG
367 57 10 0.000000 7.389000 31.514999 18.410460 # Oc LIG
368 57 10 0.000000 20.445999 8.900000 18.410460 # Oc LIG
369 57 6 0.000000 5.809000 41.563000 24.154461 # H LIG
370 57 6 0.000000 18.865999 18.948000 24.154461 # H LIG
371 57 10 0.000000 10.541000 0.459000 18.410460 # Oc LIG
372 57 10 0.000000 23.598000 23.073999 18.410460 # Oc LIG
373 57 4 0.000000 11.743000 0.230000 17.835461 # Cc LIG
374 57 4 0.000000 24.799999 22.844999 17.835461 # Cc LIG
375 57 4 0.000000 6.986000 32.669998 17.835461 # Cc LIG
376 57 4 0.000000 20.042999 10.055000 17.835461 # Cc LIG
377 57 6 0.000000 0.271000 6.864000 24.154461 # H LIG
378 57 6 0.000000 13.328000 29.479000 24.154461 # H LIG
379 57 6 0.000000 6.977000 19.417999 24.154461 # H LIG
380 57 6 0.000000 20.033001 42.033001 24.154461 # H LIG
381 57 7 0.000000 5.314000 7.966000 0.934500 # Mg LIG
382 57 7 0.000000 18.371000 30.580999 0.934500 # Mg LIG
383 57 7 0.000000 4.242000 6.491000 26.295460 # Mg LIG
384 57 7 0.000000 17.299000 29.106001 26.295460 # Mg LIG
385 57 7 0.000000 3.501000 8.158000 3.240500 # Mg LIG
386 57 7 0.000000 16.558001 30.773001 3.240500 # Mg LIG
387 57 7 0.000000 7.743000 14.649000 26.732460 # Mg LIG
388 57 7 0.000000 20.799000 37.264000 26.732460 # Mg LIG
389 57 7 0.000000 8.815000 16.124001 1.370500 # Mg LIG
390 57 7 0.000000 21.872000 38.738998 1.370500 # Mg LIG
391 57 7 0.000000 9.556000 14.457000 24.426460 # Mg LIG
392 57 7 0.000000 22.613001 37.071999 24.426460 # Mg LIG
393 57 7 0.000000 8.815000 31.200001 26.732460 # Mg LIG
394 57 7 0.000000 21.872000 8.585000 26.732460 # Mg LIG
395 57 7 0.000000 9.556000 29.534000 1.370500 # Mg LIG
396 57 7 0.000000 22.613001 6.919000 1.370500 # Mg LIG
397 57 7 0.000000 4.242000 21.568001 3.240500 # Mg LIG
398 57 7 0.000000 17.299000 44.182999 3.240500 # Mg LIG
399 57 7 0.000000 8.815000 1.047000 24.426460 # Mg LIG
400 57 7 0.000000 21.872000 23.662001 24.426460 # Mg LIG
401 57 7 0.000000 5.314000 38.118999 3.240500 # Mg LIG
402 57 7 0.000000 18.371000 15.504000 3.240500 # Mg LIG
403 57 7 0.000000 7.743000 44.801998 1.370500 # Mg LIG
404 57 7 0.000000 20.799000 22.187000 1.370500 # Mg LIG
405 57 7 0.000000 9.556000 44.611000 26.732460 # Mg LIG
406 57 7 0.000000 22.613001 21.996000 26.732460 # Mg LIG
407 57 7 0.000000 3.501000 38.311001 26.295460 # Mg LIG
408 57 7 0.000000 16.558001 15.696000 26.295460 # Mg LIG
409 57 7 0.000000 4.242000 36.645000 0.934500 # Mg LIG
410 57 7 0.000000 17.299000 14.030000 0.934500 # Mg LIG
411 57 7 0.000000 5.314000 23.042999 26.295460 # Mg LIG
412 57 7 0.000000 18.371000 0.428000 26.295460 # Mg LIG
413 57 7 0.000000 3.501000 23.233999 0.934500 # Mg LIG
414 57 7 0.000000 16.558001 0.619000 0.934500 # Mg LIG
415 57 7 0.000000 7.743000 29.726000 24.426460 # Mg LIG
416 57 7 0.000000 20.799000 7.111000 24.426460 # Mg LIG
417 57 2 0.000000 5.704000 9.170000 25.972460 # Ca LIG
418 57 2 0.000000 18.761000 31.785000 25.972460 # Ca LIG
419 57 3 0.000000 6.098000 10.247000 25.032459 # Cb LIG
420 57 3 0.000000 19.155001 32.862000 25.032459 # Cb LIG
421 57 5 0.000000 6.932000 11.258000 25.527460 # Cd LIG
422 57 5 0.000000 19.989000 33.873001 25.527460 # Cd LIG
423 57 6 0.000000 7.248000 11.206000 26.567459 # H LIG
424 57 6 0.000000 20.305000 33.820999 26.567459 # H LIG
425 57 9 0.000000 6.149000 9.140000 27.162460 # Ob LIG
426 57 9 0.000000 19.205999 31.754999 27.162460 # Ob LIG
427 57 8 0.000000 4.881000 8.269000 25.544460 # Oa LIG
428 57 8 0.000000 17.938000 30.884001 25.544460 # Oa LIG
429 57 10 0.000000 8.183000 13.257000 25.327459 # Oc LIG
430 57 10 0.000000 21.240000 35.872002 25.327459 # Oc LIG
431 57 8 0.000000 4.721000 6.715000 2.488500 # Oa LIG
432 57 8 0.000000 17.777000 29.330000 2.488500 # Oa LIG
433 57 8 0.000000 3.455000 7.631000 0.183500 # Oa LIG
434 57 8 0.000000 16.511000 30.246000 0.183500 # Oa LIG
435 57 10 0.000000 4.874000 9.358000 2.338500 # Oc LIG
436 57 10 0.000000 17.930000 31.973000 2.338500 # Oc LIG
437 57 10 0.000000 5.668000 6.177000 0.033500 # Oc LIG
438 57 10 0.000000 18.725000 28.792000 0.033500 # Oc LIG
439 57 4 0.000000 5.672000 10.284000 2.914500 # Cc LIG
440 57 4 0.000000 18.729000 32.898998 2.914500 # Cc LIG
441 57 2 0.000000 7.353000 13.445000 1.694500 # Ca LIG
442 57 2 0.000000 20.409000 36.060001 1.694500 # Ca LIG
443 57 3 0.000000 6.959000 12.368000 2.634500 # Cb LIG
444 57 3 0.000000 20.016001 34.983002 2.634500 # Cb LIG
445 57 4 0.000000 7.384000 12.331000 24.752460 # Cc LIG
446 57 4 0.000000 20.441000 34.945999 24.752460 # Cc LIG
447 57 5 0.000000 6.125000 11.357000 2.139500 # Cd LIG
448 57 5 0.000000 19.181000 33.972000 2.139500 # Cd LIG
449 57 6 0.000000 5.809000 11.409000 1.099500 # H LIG
450 57 6 0.000000 18.865999 34.023998 1.099500 # H LIG
451 57 9 0.000000 6.908000 13.475000 0.504500 # Ob LIG
452 57 9 0.000000 19.965000 36.090000 0.504500 # Ob LIG
453 57 8 0.000000 8.175000 14.346000 2.121500 # Oa LIG
454 57 8 0.000000 21.232000 36.960999 2.121500 # Oa LIG
455 57 8 0.000000 8.336000 15.900000 25.177460 # Oa LIG
456 57 8 0.000000 21.393000 38.514999 25.177460 # Oa LIG
457 57 8 0.000000 9.602000 14.984000 27.483459 # Oa LIG
458 57 8 0.000000 22.659000 37.598999 27.483459 # Oa LIG
459 57 10 0.000000 7.389000 16.438000 27.633459 # Oc LIG
460 57 10 0.000000 20.445999 39.053001 27.633459 # Oc LIG
461 57 8 0.000000 9.602000 30.059999 25.177460 # Oa LIG
462 57 8 0.000000 22.659000 7.445000 25.177460 # Oa LIG
463 57 8 0.000000 8.336000 30.976999 2.121500 # Oa LIG
464 57 8 0.000000 21.393000 8.362000 2.121500 # Oa LIG
465 57 8 0.000000 4.721000 21.791000 0.183500 # Oa LIG
466 57 8 0.000000 17.777000 44.405998 0.183500 # Oa LIG
467 57 10 0.000000 5.668000 21.254000 25.394459 # Oc LIG
468 57 10 0.000000 18.725000 43.868999 25.394459 # Oc LIG
469 57 8 0.000000 8.336000 0.824000 27.483459 # Oa LIG
470 57 8 0.000000 21.393000 23.438999 27.483459 # Oa LIG
471 57 10 0.000000 7.389000 1.361000 2.271500 # Oc LIG
472 57 10 0.000000 20.445999 23.976000 2.271500 # Oc LIG
473 57 10 0.000000 4.874000 39.512001 25.394459 # Oc LIG
474 57 10 0.000000 17.930000 16.896999 25.394459 # Oc LIG
475 57 2 0.000000 5.704000 39.324001 0.610500 # Ca LIG
476 57 2 0.000000 18.761000 16.709000 0.610500 # Ca LIG
477 57 3 0.000000 6.098000 40.401001 27.338459 # Cb LIG
478 57 3 0.000000 19.155001 17.785999 27.338459 # Cb LIG
479 57 4 0.000000 5.672000 40.438000 25.970459 # Cc LIG
480 57 4 0.000000 18.729000 17.823000 25.970459 # Cc LIG
481 57 5 0.000000 6.932000 41.410999 0.166500 # Cd LIG
482 57 5 0.000000 19.989000 18.796000 0.166500 # Cd LIG
483 57 6 0.000000 7.248000 41.359001 1.205500 # H LIG
484 57 6 0.000000 20.305000 18.743999 1.205500 # H LIG
485 57 9 0.000000 6.149000 39.292999 1.800500 # Ob LIG
486 57 9 0.000000 19.205999 16.677999 1.800500 # Ob LIG
487 57 8 0.000000 4.882000 38.423000 0.183500 # Oa LIG
488 57 8 0.000000 17.938000 15.808000 0.183500 # Oa LIG
489 57 3 0.000000 6.959000 42.521000 25.690460 # Cb LIG
490 57 3 0.000000 20.016001 19.906000 25.690460 # Cb LIG
491 57 4 0.000000 7.384000 42.484001 27.057461 # Cc LIG
492 57 4 0.000000 20.441000 19.868999 27.057461 # Cc LIG
493 57 5 0.000000 6.125000 41.509998 25.194460 # Cd LIG
494 57 5 0.000000 19.181000 18.895000 25.194460 # Cd LIG
495 57 8 0.000000 8.175000 44.499001 25.177460 # Oa LIG
496 57 8 0.000000 21.232000 21.884001 25.177460 # Oa LIG
497 57 10 0.000000 8.183000 43.410000 27.633459 # Oc LIG
498 57 10 0.000000 21.240000 20.795000 27.633459 # Oc LIG
499 57 10 0.000000 5.668000 36.330002 2.338500 # Oc LIG
500 57 10 0.000000 18.725000 13.715000 2.338500 # Oc LIG
501 57 2 0.000000 7.353000 43.598000 24.750460 # Ca LIG
502 57 2 0.000000 20.409000 20.983000 24.750460 # Ca LIG
503 57 9 0.000000 6.908000 43.627998 2.809500 # Ob LIG
504 57 9 0.000000 19.965000 21.013000 2.809500 # Ob LIG
505 57 8 0.000000 9.602000 45.137001 2.121500 # Oa LIG
506 57 8 0.000000 22.659000 22.521999 2.121500 # Oa LIG
507 57 8 0.000000 4.721000 36.868000 25.544460 # Oa LIG
508 57 8 0.000000 17.778000 14.253000 25.544460 # Oa LIG
509 57 8 0.000000 3.455000 37.785000 2.488500 # Oa LIG
510 57 8 0.000000 16.511000 15.170000 2.488500 # Oa LIG
511 57 10 0.000000 2.515000 22.156000 2.338500 # Oc LIG
512 57 10 0.000000 15.572000 44.771000 2.338500 # Oc LIG
513 57 4 0.000000 1.314000 22.385000 2.914500 # Cc LIG
514 57 4 0.000000 14.371000 45.000000 2.914500 # Cc LIG
515 57 2 0.000000 10.794000 44.875000 1.694500 # Ca LIG
516 57 2 0.000000 23.851000 22.260000 1.694500 # Ca LIG
517 57 3 0.000000 11.924000 45.073002 2.634500 # Cb LIG
518 57 3 0.000000 24.980000 22.458000 2.634500 # Cb LIG
519 57 5 0.000000 0.159000 22.240999 2.139500 # Cd LIG
520 57 5 0.000000 13.216000 44.855999 2.139500 # Cd LIG
521 57 6 0.000000 0.271000 21.941000 1.099500 # H LIG
522 57 6 0.000000 13.328000 44.556000 1.099500 # H LIG
523 57 9 0.000000 10.990000 44.474998 0.504500 # Ob LIG
524 57 9 0.000000 24.047001 21.860001 0.504500 # Ob LIG
525 57 4 0.000000 6.070000 35.174999 2.914500 # Cc LIG
526 57 4 0.000000 19.127001 12.560000 2.914500 # Cc LIG