LAMMPS data file. CGCMM style. atom_style full generated by VMD/TopoTools v1.5 on Mon Mar 06 09:08:35 PST 2017
 2952 atoms
 0 bonds
 0 angles
 0 dihedrals
 0 impropers
 10 atom types
 0 bond types
 0 angle types
 0 dihedral types
 0 improper types
 0.451838 52.642840  xlo xhi
 0.325101 45.523500  ylo yhi
 -0.000120 27.527121  zlo zhi

# Pair Coeffs
#
# 1  CH4
# 2  Ca
# 3  Cb
# 4  Cc
# 5  Cd
# 6  H
# 7  Oa
# 8  Ob
# 9  Oc
# 10  Zn

 Masses

 1 16.040001 # CH4
 2 12.011000 # Ca
 3 12.011000 # Cb
 4 12.011000 # Cc
 5 12.011000 # Cd
 6 1.008000 # H
 7 15.999000 # Oa
 8 15.999000 # Ob
 9 15.999000 # Oc
 10 65.379997 # Zn

 Atoms

1 1 1 0.000000 52.190678 45.197601 13.916000 # CH4 
2 1 1 0.000000 52.190678 45.197601 14.222000 # CH4 
3 1 1 0.000000 52.190678 45.197601 14.528001 # CH4 
4 1 1 0.000000 52.190678 45.197601 14.834001 # CH4 
5 1 1 0.000000 52.190678 45.197601 15.140000 # CH4 
6 1 1 0.000000 52.190678 45.197601 15.446000 # CH4 
7 1 1 0.000000 52.190678 45.197601 15.751000 # CH4 
8 1 1 0.000000 52.190678 45.197601 16.056999 # CH4 
9 1 1 0.000000 52.190678 45.197601 16.363001 # CH4 
10 1 1 0.000000 52.190678 45.197601 16.669001 # CH4 
11 1 1 0.000000 52.190678 45.197601 16.975000 # CH4 
12 1 1 0.000000 52.190678 45.197601 17.281000 # CH4 
13 1 1 0.000000 52.190678 45.197601 17.587002 # CH4 
14 1 1 0.000000 52.190678 45.197601 17.892000 # CH4 
15 1 1 0.000000 52.190678 45.197601 18.198000 # CH4 
16 1 1 0.000000 52.190678 45.197601 18.504002 # CH4 
17 1 1 0.000000 52.190678 45.197601 18.810001 # CH4 
18 1 1 0.000000 52.190678 45.197601 19.116001 # CH4 
19 1 1 0.000000 52.190678 45.197601 19.422001 # CH4 
20 1 1 0.000000 52.190678 45.197601 19.728001 # CH4 
21 1 1 0.000000 52.190678 45.197601 20.033001 # CH4 
22 1 1 0.000000 52.190678 45.197601 20.339001 # CH4 
23 1 1 0.000000 52.190678 45.197601 20.645000 # CH4 
24 1 1 0.000000 52.190678 45.197601 20.951000 # CH4 
25 1 1 0.000000 52.190678 45.197601 21.257000 # CH4 
26 1 1 0.000000 52.190678 45.197601 21.563000 # CH4 
27 1 1 0.000000 52.190678 45.197601 21.868999 # CH4 
28 1 1 0.000000 52.190678 45.197601 22.174000 # CH4 
29 1 1 0.000000 52.190678 45.197601 22.480000 # CH4 
30 1 1 0.000000 52.190678 45.197601 22.785999 # CH4 
31 1 1 0.000000 52.190678 45.197601 23.092001 # CH4 
32 1 1 0.000000 52.190678 45.197601 23.398001 # CH4 
33 1 1 0.000000 52.190678 45.197601 23.704000 # CH4 
34 1 1 0.000000 52.190678 45.197601 24.010000 # CH4 
35 1 1 0.000000 52.190678 45.197601 24.315001 # CH4 
36 1 1 0.000000 52.190678 45.197601 24.621000 # CH4 
37 1 1 0.000000 52.190678 45.197601 24.927000 # CH4 
38 1 1 0.000000 52.190678 45.197601 25.233000 # CH4 
39 1 1 0.000000 52.190678 45.197601 25.539000 # CH4 
40 1 1 0.000000 52.190678 45.197601 25.845001 # CH4 
41 1 1 0.000000 52.190678 45.197601 26.151001 # CH4 
42 1 1 0.000000 52.190678 45.197601 26.456001 # CH4 
43 1 1 0.000000 52.190678 45.197601 26.762001 # CH4 
44 1 1 0.000000 52.190678 45.197601 27.068001 # CH4 
45 1 1 0.000000 52.190678 45.197601 27.374001 # CH4 
46 1 1 0.000000 52.190678 45.197601 0.153000 # CH4 
47 1 1 0.000000 52.190678 45.197601 0.459000 # CH4 
48 1 1 0.000000 52.190678 45.197601 0.765000 # CH4 
49 1 1 0.000000 52.190678 45.197601 1.071000 # CH4 
50 1 1 0.000000 52.190678 45.197601 1.376000 # CH4 
51 1 1 0.000000 52.190678 45.197601 1.682000 # CH4 
52 1 1 0.000000 52.190678 45.197601 1.988000 # CH4 
53 1 1 0.000000 52.190678 45.197601 2.294000 # CH4 
54 1 1 0.000000 52.190678 45.197601 2.600000 # CH4 
55 1 1 0.000000 52.190678 45.197601 2.906000 # CH4 
56 1 1 0.000000 52.190678 45.197601 3.212000 # CH4 
57 1 1 0.000000 52.190678 45.197601 3.517000 # CH4 
58 1 1 0.000000 52.190678 45.197601 3.823000 # CH4 
59 1 1 0.000000 52.190678 45.197601 4.129000 # CH4 
60 1 1 0.000000 52.190678 45.197601 4.435000 # CH4 
61 1 1 0.000000 52.190678 45.197601 4.741000 # CH4 
62 1 1 0.000000 52.190678 45.197601 5.047000 # CH4 
63 1 1 0.000000 52.190678 45.197601 5.353000 # CH4 
64 1 1 0.000000 52.190678 45.197601 5.658000 # CH4 
65 1 1 0.000000 52.190678 45.197601 5.964000 # CH4 
66 1 1 0.000000 52.190678 45.197601 6.270000 # CH4 
67 1 1 0.000000 52.190678 45.197601 6.576000 # CH4 
68 1 1 0.000000 52.190678 45.197601 6.882000 # CH4 
69 1 1 0.000000 52.190678 45.197601 7.188000 # CH4 
70 1 1 0.000000 52.190678 45.197601 7.494000 # CH4 
71 1 1 0.000000 52.190678 45.197601 7.799000 # CH4 
72 1 1 0.000000 52.190678 45.197601 8.105000 # CH4 
73 1 1 0.000000 52.190678 45.197601 8.411000 # CH4 
74 1 1 0.000000 52.190678 45.197601 8.717000 # CH4 
75 1 1 0.000000 52.190678 45.197601 9.023000 # CH4 
76 1 1 0.000000 52.190678 45.197601 9.329000 # CH4 
77 1 1 0.000000 52.190678 45.197601 9.635000 # CH4 
78 1 1 0.000000 52.190678 45.197601 9.940000 # CH4 
79 1 1 0.000000 52.190678 45.197601 10.246000 # CH4 
80 1 1 0.000000 52.190678 45.197601 10.552000 # CH4 
81 1 1 0.000000 52.190678 45.197601 10.858000 # CH4 
82 1 1 0.000000 52.190678 45.197601 11.164000 # CH4 
83 1 1 0.000000 52.190678 45.197601 11.470000 # CH4 
84 1 1 0.000000 52.190678 45.197601 11.776000 # CH4 
85 1 1 0.000000 52.190678 45.197601 12.081000 # CH4 
86 1 1 0.000000 52.190678 45.197601 12.387000 # CH4 
87 1 1 0.000000 52.190678 45.197601 12.693000 # CH4 
88 1 1 0.000000 52.190678 45.197601 12.999000 # CH4 
89 1 1 0.000000 52.190678 45.197601 13.305000 # CH4 
90 1 1 0.000000 52.190678 45.197601 13.611000 # CH4 
91 1 1 0.000000 52.190678 22.599600 13.916000 # CH4 
92 1 1 0.000000 52.190678 22.599600 14.222000 # CH4 
93 1 1 0.000000 52.190678 22.599600 14.528001 # CH4 
94 1 1 0.000000 52.190678 22.599600 14.834001 # CH4 
95 1 1 0.000000 52.190678 22.599600 15.140000 # CH4 
96 1 1 0.000000 52.190678 22.599600 15.446000 # CH4 
97 1 1 0.000000 52.190678 22.599600 15.751000 # CH4 
98 1 1 0.000000 52.190678 22.599600 16.056999 # CH4 
99 1 1 0.000000 52.190678 22.599600 16.363001 # CH4 
100 1 1 0.000000 52.190678 22.599600 16.669001 # CH4 
101 1 1 0.000000 52.190678 22.599600 16.975000 # CH4 
102 1 1 0.000000 52.190678 22.599600 17.281000 # CH4 
103 1 1 0.000000 52.190678 22.599600 17.587002 # CH4 
104 1 1 0.000000 52.190678 22.599600 17.892000 # CH4 
105 1 1 0.000000 52.190678 22.599600 18.198000 # CH4 
106 1 1 0.000000 52.190678 22.599600 18.504002 # CH4 
107 1 1 0.000000 52.190678 22.599600 18.810001 # CH4 
108 1 1 0.000000 52.190678 22.599600 19.116001 # CH4 
109 1 1 0.000000 52.190678 22.599600 19.422001 # CH4 
110 1 1 0.000000 52.190678 22.599600 19.728001 # CH4 
111 1 1 0.000000 52.190678 22.599600 20.033001 # CH4 
112 1 1 0.000000 52.190678 22.599600 20.339001 # CH4 
113 1 1 0.000000 52.190678 22.599600 20.645000 # CH4 
114 1 1 0.000000 52.190678 22.599600 20.951000 # CH4 
115 1 1 0.000000 52.190678 22.599600 21.257000 # CH4 
116 1 1 0.000000 52.190678 22.599600 21.563000 # CH4 
117 1 1 0.000000 52.190678 22.599600 21.868999 # CH4 
118 1 1 0.000000 52.190678 22.599600 22.174000 # CH4 
119 1 1 0.000000 52.190678 22.599600 22.480000 # CH4 
120 1 1 0.000000 52.190678 22.599600 22.785999 # CH4 
121 1 1 0.000000 52.190678 22.599600 23.092001 # CH4 
122 1 1 0.000000 52.190678 22.599600 23.398001 # CH4 
123 1 1 0.000000 52.190678 22.599600 23.704000 # CH4 
124 1 1 0.000000 52.190678 22.599600 24.010000 # CH4 
125 1 1 0.000000 52.190678 22.599600 24.315001 # CH4 
126 1 1 0.000000 52.190678 22.599600 24.621000 # CH4 
127 1 1 0.000000 52.190678 22.599600 24.927000 # CH4 
128 1 1 0.000000 52.190678 22.599600 25.233000 # CH4 
129 1 1 0.000000 52.190678 22.599600 25.539000 # CH4 
130 1 1 0.000000 52.190678 22.599600 25.845001 # CH4 
131 1 1 0.000000 52.190678 22.599600 26.151001 # CH4 
132 1 1 0.000000 52.190678 22.599600 26.456001 # CH4 
133 1 1 0.000000 52.190678 22.599600 26.762001 # CH4 
134 1 1 0.000000 52.190678 22.599600 27.068001 # CH4 
135 1 1 0.000000 52.190678 22.599600 27.374001 # CH4 
136 1 1 0.000000 52.190678 22.599600 0.153000 # CH4 
137 1 1 0.000000 52.190678 22.599600 0.459000 # CH4 
138 1 1 0.000000 52.190678 22.599600 0.765000 # CH4 
139 1 1 0.000000 52.190678 22.599600 1.071000 # CH4 
140 1 1 0.000000 52.190678 22.599600 1.376000 # CH4 
141 1 1 0.000000 52.190678 22.599600 1.682000 # CH4 
142 1 1 0.000000 52.190678 22.599600 1.988000 # CH4 
143 1 1 0.000000 52.190678 22.599600 2.294000 # CH4 
144 1 1 0.000000 52.190678 22.599600 2.600000 # CH4 
145 1 1 0.000000 52.190678 22.599600 2.906000 # CH4 
146 1 1 0.000000 52.190678 22.599600 3.212000 # CH4 
147 1 1 0.000000 52.190678 22.599600 3.517000 # CH4 
148 1 1 0.000000 52.190678 22.599600 3.823000 # CH4 
149 1 1 0.000000 52.190678 22.599600 4.129000 # CH4 
150 1 1 0.000000 52.190678 22.599600 4.435000 # CH4 
151 1 1 0.000000 52.190678 22.599600 4.741000 # CH4 
152 1 1 0.000000 52.190678 22.599600 5.047000 # CH4 
153 1 1 0.000000 52.190678 22.599600 5.353000 # CH4 
154 1 1 0.000000 52.190678 22.599600 5.658000 # CH4 
155 1 1 0.000000 52.190678 22.599600 5.964000 # CH4 
156 1 1 0.000000 52.190678 22.599600 6.270000 # CH4 
157 1 1 0.000000 52.190678 22.599600 6.576000 # CH4 
158 1 1 0.000000 52.190678 22.599600 6.882000 # CH4 
159 1 1 0.000000 52.190678 22.599600 7.188000 # CH4 
160 1 1 0.000000 52.190678 22.599600 7.494000 # CH4 
161 1 1 0.000000 52.190678 22.599600 7.799000 # CH4 
162 1 1 0.000000 52.190678 22.599600 8.105000 # CH4 
163 1 1 0.000000 52.190678 22.599600 8.411000 # CH4 
164 1 1 0.000000 52.190678 22.599600 8.717000 # CH4 
165 1 1 0.000000 52.190678 22.599600 9.023000 # CH4 
166 1 1 0.000000 52.190678 22.599600 9.329000 # CH4 
167 1 1 0.000000 52.190678 22.599600 9.635000 # CH4 
168 1 1 0.000000 52.190678 22.599600 9.940000 # CH4 
169 1 1 0.000000 52.190678 22.599600 10.246000 # CH4 
170 1 1 0.000000 52.190678 22.599600 10.552000 # CH4 
171 1 1 0.000000 52.190678 22.599600 10.858000 # CH4 
172 1 1 0.000000 52.190678 22.599600 11.164000 # CH4 
173 1 1 0.000000 52.190678 22.599600 11.470000 # CH4 
174 1 1 0.000000 52.190678 22.599600 11.776000 # CH4 
175 1 1 0.000000 52.190678 22.599600 12.081000 # CH4 
176 1 1 0.000000 52.190678 22.599600 12.387000 # CH4 
177 1 1 0.000000 52.190678 22.599600 12.693000 # CH4 
178 1 1 0.000000 52.190678 22.599600 12.999000 # CH4 
179 1 1 0.000000 52.190678 22.599600 13.305000 # CH4 
180 1 1 0.000000 52.190678 22.599600 13.611000 # CH4 
181 1 1 0.000000 26.095676 45.197601 13.916000 # CH4 
182 1 1 0.000000 26.095676 45.197601 14.222000 # CH4 
183 1 1 0.000000 26.095676 45.197601 14.528001 # CH4 
184 1 1 0.000000 26.095676 45.197601 14.834001 # CH4 
185 1 1 0.000000 26.095676 45.197601 15.140000 # CH4 
186 1 1 0.000000 26.095676 45.197601 15.446000 # CH4 
187 1 1 0.000000 26.095676 45.197601 15.751000 # CH4 
188 1 1 0.000000 26.095676 45.197601 16.056999 # CH4 
189 1 1 0.000000 26.095676 45.197601 16.363001 # CH4 
190 1 1 0.000000 26.095676 45.197601 16.669001 # CH4 
191 1 1 0.000000 26.095676 45.197601 16.975000 # CH4 
192 1 1 0.000000 26.095676 45.197601 17.281000 # CH4 
193 1 1 0.000000 26.095676 45.197601 17.587002 # CH4 
194 1 1 0.000000 26.095676 45.197601 17.892000 # CH4 
195 1 1 0.000000 26.095676 45.197601 18.198000 # CH4 
196 1 1 0.000000 26.095676 45.197601 18.504002 # CH4 
197 1 1 0.000000 26.095676 45.197601 18.810001 # CH4 
198 1 1 0.000000 26.095676 45.197601 19.116001 # CH4 
199 1 1 0.000000 26.095676 45.197601 19.422001 # CH4 
200 1 1 0.000000 26.095676 45.197601 19.728001 # CH4 
201 1 1 0.000000 26.095676 45.197601 20.033001 # CH4 
202 1 1 0.000000 26.095676 45.197601 20.339001 # CH4 
203 1 1 0.000000 26.095676 45.197601 20.645000 # CH4 
204 1 1 0.000000 26.095676 45.197601 20.951000 # CH4 
205 1 1 0.000000 26.095676 45.197601 21.257000 # CH4 
206 1 1 0.000000 26.095676 45.197601 21.563000 # CH4 
207 1 1 0.000000 26.095676 45.197601 21.868999 # CH4 
208 1 1 0.000000 26.095676 45.197601 22.174000 # CH4 
209 1 1 0.000000 26.095676 45.197601 22.480000 # CH4 
210 1 1 0.000000 26.095676 45.197601 22.785999 # CH4 
211 1 1 0.000000 26.095676 45.197601 23.092001 # CH4 
212 1 1 0.000000 26.095676 45.197601 23.398001 # CH4 
213 1 1 0.000000 26.095676 45.197601 23.704000 # CH4 
214 1 1 0.000000 26.095676 45.197601 24.010000 # CH4 
215 1 1 0.000000 26.095676 45.197601 24.315001 # CH4 
216 1 1 0.000000 26.095676 45.197601 24.621000 # CH4 
217 1 1 0.000000 26.095676 45.197601 24.927000 # CH4 
218 1 1 0.000000 26.095676 45.197601 25.233000 # CH4 
219 1 1 0.000000 26.095676 45.197601 25.539000 # CH4 
220 1 1 0.000000 26.095676 45.197601 25.845001 # CH4 
221 1 1 0.000000 26.095676 45.197601 26.151001 # CH4 
222 1 1 0.000000 26.095676 45.197601 26.456001 # CH4 
223 1 1 0.000000 26.095676 45.197601 26.762001 # CH4 
224 1 1 0.000000 26.095676 45.197601 27.068001 # CH4 
225 1 1 0.000000 26.095676 45.197601 27.374001 # CH4 
226 1 1 0.000000 26.095676 45.197601 0.153000 # CH4 
227 1 1 0.000000 26.095676 45.197601 0.459000 # CH4 
228 1 1 0.000000 26.095676 45.197601 0.765000 # CH4 
229 1 1 0.000000 26.095676 45.197601 1.071000 # CH4 
230 1 1 0.000000 26.095676 45.197601 1.376000 # CH4 
231 1 1 0.000000 26.095676 45.197601 1.682000 # CH4 
232 1 1 0.000000 26.095676 45.197601 1.988000 # CH4 
233 1 1 0.000000 26.095676 45.197601 2.294000 # CH4 
234 1 1 0.000000 26.095676 45.197601 2.600000 # CH4 
235 1 1 0.000000 26.095676 45.197601 2.906000 # CH4 
236 1 1 0.000000 26.095676 45.197601 3.212000 # CH4 
237 1 1 0.000000 26.095676 45.197601 3.517000 # CH4 
238 1 1 0.000000 26.095676 45.197601 3.823000 # CH4 
239 1 1 0.000000 26.095676 45.197601 4.129000 # CH4 
240 1 1 0.000000 26.095676 45.197601 4.435000 # CH4 
241 1 1 0.000000 26.095676 45.197601 4.741000 # CH4 
242 1 1 0.000000 26.095676 45.197601 5.047000 # CH4 
243 1 1 0.000000 26.095676 45.197601 5.353000 # CH4 
244 1 1 0.000000 26.095676 45.197601 5.658000 # CH4 
245 1 1 0.000000 26.095676 45.197601 5.964000 # CH4 
246 1 1 0.000000 26.095676 45.197601 6.270000 # CH4 
247 1 1 0.000000 26.095676 45.197601 6.576000 # CH4 
248 1 1 0.000000 26.095676 45.197601 6.882000 # CH4 
249 1 1 0.000000 26.095676 45.197601 7.188000 # CH4 
250 1 1 0.000000 26.095676 45.197601 7.494000 # CH4 
251 1 1 0.000000 26.095676 45.197601 7.799000 # CH4 
252 1 1 0.000000 26.095676 45.197601 8.105000 # CH4 
253 1 1 0.000000 26.095676 45.197601 8.411000 # CH4 
254 1 1 0.000000 26.095676 45.197601 8.717000 # CH4 
255 1 1 0.000000 26.095676 45.197601 9.023000 # CH4 
256 1 1 0.000000 26.095676 45.197601 9.329000 # CH4 
257 1 1 0.000000 26.095676 45.197601 9.635000 # CH4 
258 1 1 0.000000 26.095676 45.197601 9.940000 # CH4 
259 1 1 0.000000 26.095676 45.197601 10.246000 # CH4 
260 1 1 0.000000 26.095676 45.197601 10.552000 # CH4 
261 1 1 0.000000 26.095676 45.197601 10.858000 # CH4 
262 1 1 0.000000 26.095676 45.197601 11.164000 # CH4 
263 1 1 0.000000 26.095676 45.197601 11.470000 # CH4 
264 1 1 0.000000 26.095676 45.197601 11.776000 # CH4 
265 1 1 0.000000 26.095676 45.197601 12.081000 # CH4 
266 1 1 0.000000 26.095676 45.197601 12.387000 # CH4 
267 1 1 0.000000 26.095676 45.197601 12.693000 # CH4 
268 1 1 0.000000 26.095676 45.197601 12.999000 # CH4 
269 1 1 0.000000 26.095676 45.197601 13.305000 # CH4 
270 1 1 0.000000 26.095676 45.197601 13.611000 # CH4 
271 1 1 0.000000 26.095676 22.599600 13.916000 # CH4 
272 1 1 0.000000 26.095676 22.599600 14.222000 # CH4 
273 1 1 0.000000 26.095676 22.599600 14.528001 # CH4 
274 1 1 0.000000 26.095676 22.599600 14.834001 # CH4 
275 1 1 0.000000 26.095676 22.599600 15.140000 # CH4 
276 1 1 0.000000 26.095676 22.599600 15.446000 # CH4 
277 1 1 0.000000 26.095676 22.599600 15.751000 # CH4 
278 1 1 0.000000 26.095676 22.599600 16.056999 # CH4 
279 1 1 0.000000 26.095676 22.599600 16.363001 # CH4 
280 1 1 0.000000 26.095676 22.599600 16.669001 # CH4 
281 1 1 0.000000 26.095676 22.599600 16.975000 # CH4 
282 1 1 0.000000 26.095676 22.599600 17.281000 # CH4 
283 1 1 0.000000 26.095676 22.599600 17.587002 # CH4 
284 1 1 0.000000 26.095676 22.599600 17.892000 # CH4 
285 1 1 0.000000 26.095676 22.599600 18.198000 # CH4 
286 1 1 0.000000 26.095676 22.599600 18.504002 # CH4 
287 1 1 0.000000 26.095676 22.599600 18.810001 # CH4 
288 1 1 0.000000 26.095676 22.599600 19.116001 # CH4 
289 1 1 0.000000 26.095676 22.599600 19.422001 # CH4 
290 1 1 0.000000 26.095676 22.599600 19.728001 # CH4 
291 1 1 0.000000 26.095676 22.599600 20.033001 # CH4 
292 1 1 0.000000 26.095676 22.599600 20.339001 # CH4 
293 1 1 0.000000 26.095676 22.599600 20.645000 # CH4 
294 1 1 0.000000 26.095676 22.599600 20.951000 # CH4 
295 1 1 0.000000 26.095676 22.599600 21.257000 # CH4 
296 1 1 0.000000 26.095676 22.599600 21.563000 # CH4 
297 1 1 0.000000 26.095676 22.599600 21.868999 # CH4 
298 1 1 0.000000 26.095676 22.599600 22.174000 # CH4 
299 1 1 0.000000 26.095676 22.599600 22.480000 # CH4 
300 1 1 0.000000 26.095676 22.599600 22.785999 # CH4 
301 1 1 0.000000 26.095676 22.599600 23.092001 # CH4 
302 1 1 0.000000 26.095676 22.599600 23.398001 # CH4 
303 1 1 0.000000 26.095676 22.599600 23.704000 # CH4 
304 1 1 0.000000 26.095676 22.599600 24.010000 # CH4 
305 1 1 0.000000 26.095676 22.599600 24.315001 # CH4 
306 1 1 0.000000 26.095676 22.599600 24.621000 # CH4 
307 1 1 0.000000 26.095676 22.599600 24.927000 # CH4 
308 1 1 0.000000 26.095676 22.599600 25.233000 # CH4 
309 1 1 0.000000 26.095676 22.599600 25.539000 # CH4 
310 1 1 0.000000 26.095676 22.599600 25.845001 # CH4 
311 1 1 0.000000 26.095676 22.599600 26.151001 # CH4 
312 1 1 0.000000 26.095676 22.599600 26.456001 # CH4 
313 1 1 0.000000 26.095676 22.599600 26.762001 # CH4 
314 1 1 0.000000 26.095676 22.599600 27.068001 # CH4 
315 1 1 0.000000 26.095676 22.599600 27.374001 # CH4 
316 1 1 0.000000 26.095676 22.599600 0.153000 # CH4 
317 1 1 0.000000 26.095676 22.599600 0.459000 # CH4 
318 1 1 0.000000 26.095676 22.599600 0.765000 # CH4 
319 1 1 0.000000 26.095676 22.599600 1.071000 # CH4 
320 1 1 0.000000 26.095676 22.599600 1.376000 # CH4 
321 1 1 0.000000 26.095676 22.599600 1.682000 # CH4 
322 1 1 0.000000 26.095676 22.599600 1.988000 # CH4 
323 1 1 0.000000 26.095676 22.599600 2.294000 # CH4 
324 1 1 0.000000 26.095676 22.599600 2.600000 # CH4 
325 1 1 0.000000 26.095676 22.599600 2.906000 # CH4 
326 1 1 0.000000 26.095676 22.599600 3.212000 # CH4 
327 1 1 0.000000 26.095676 22.599600 3.517000 # CH4 
328 1 1 0.000000 26.095676 22.599600 3.823000 # CH4 
329 1 1 0.000000 26.095676 22.599600 4.129000 # CH4 
330 1 1 0.000000 26.095676 22.599600 4.435000 # CH4 
331 1 1 0.000000 26.095676 22.599600 4.741000 # CH4 
332 1 1 0.000000 26.095676 22.599600 5.047000 # CH4 
333 1 1 0.000000 26.095676 22.599600 5.353000 # CH4 
334 1 1 0.000000 26.095676 22.599600 5.658000 # CH4 
335 1 1 0.000000 26.095676 22.599600 5.964000 # CH4 
336 1 1 0.000000 26.095676 22.599600 6.270000 # CH4 
337 1 1 0.000000 26.095676 22.599600 6.576000 # CH4 
338 1 1 0.000000 26.095676 22.599600 6.882000 # CH4 
339 1 1 0.000000 26.095676 22.599600 7.188000 # CH4 
340 1 1 0.000000 26.095676 22.599600 7.494000 # CH4 
341 1 1 0.000000 26.095676 22.599600 7.799000 # CH4 
342 1 1 0.000000 26.095676 22.599600 8.105000 # CH4 
343 1 1 0.000000 26.095676 22.599600 8.411000 # CH4 
344 1 1 0.000000 26.095676 22.599600 8.717000 # CH4 
345 1 1 0.000000 26.095676 22.599600 9.023000 # CH4 
346 1 1 0.000000 26.095676 22.599600 9.329000 # CH4 
347 1 1 0.000000 26.095676 22.599600 9.635000 # CH4 
348 1 1 0.000000 26.095676 22.599600 9.940000 # CH4 
349 1 1 0.000000 26.095676 22.599600 10.246000 # CH4 
350 1 1 0.000000 26.095676 22.599600 10.552000 # CH4 
351 1 1 0.000000 26.095676 22.599600 10.858000 # CH4 
352 1 1 0.000000 26.095676 22.599600 11.164000 # CH4 
353 1 1 0.000000 26.095676 22.599600 11.470000 # CH4 
354 1 1 0.000000 26.095676 22.599600 11.776000 # CH4 
355 1 1 0.000000 26.095676 22.599600 12.081000 # CH4 
356 1 1 0.000000 26.095676 22.599600 12.387000 # CH4 
357 1 1 0.000000 26.095676 22.599600 12.693000 # CH4 
358 1 1 0.000000 26.095676 22.599600 12.999000 # CH4 
359 1 1 0.000000 26.095676 22.599600 13.305000 # CH4 
360 1 1 0.000000 26.095676 22.599600 13.611000 # CH4 
361 1 10 0.000000 5.331000 7.994000 21.569241 # Zn LIG
362 2 10 0.000000 18.378000 30.594000 21.569241 # Zn LIG
363 3 10 0.000000 31.426001 7.994000 21.569241 # Zn LIG
364 4 10 0.000000 44.473999 30.594000 21.569241 # Zn LIG
365 5 2 0.000000 5.724000 9.170000 18.988241 # Ca LIG
366 6 2 0.000000 18.771999 31.768999 18.988241 # Ca LIG
367 7 2 0.000000 31.819000 9.170000 18.988241 # Ca LIG
368 8 2 0.000000 44.867001 31.768999 18.988241 # Ca LIG
369 9 3 0.000000 6.104000 10.244000 18.040241 # Cb LIG
370 10 3 0.000000 19.150999 32.842999 18.040241 # Cb LIG
371 11 3 0.000000 32.199001 10.244000 18.040241 # Cb LIG
372 12 3 0.000000 45.247002 32.842999 18.040241 # Cb LIG
373 9 5 0.000000 6.937000 11.262000 18.520241 # Cd LIG
374 10 5 0.000000 19.983999 33.861000 18.520241 # Cd LIG
375 11 5 0.000000 33.032001 11.262000 18.520241 # Cd LIG
376 12 5 0.000000 46.080002 33.861000 18.520241 # Cd LIG
377 9 6 0.000000 7.258000 11.221000 19.558241 # H LIG
378 10 6 0.000000 20.306000 33.820000 19.558241 # H LIG
379 11 6 0.000000 33.353001 11.221000 19.558241 # H LIG
380 12 6 0.000000 46.401001 33.820000 19.558241 # H LIG
381 5 8 0.000000 6.191000 9.168000 20.176241 # Ob LIG
382 6 8 0.000000 19.238001 31.767000 20.176241 # Ob LIG
383 7 8 0.000000 32.285999 9.168000 20.176241 # Ob LIG
384 8 8 0.000000 45.334000 31.767000 20.176241 # Ob LIG
385 5 7 0.000000 4.915000 8.263000 18.567242 # Oa LIG
386 6 7 0.000000 17.962999 30.862000 18.567242 # Oa LIG
387 7 7 0.000000 31.010000 8.263000 18.567242 # Oa LIG
388 8 7 0.000000 44.057999 30.862000 18.567242 # Oa LIG
389 9 9 0.000000 8.191000 13.251000 18.306240 # Oc LIG
390 10 9 0.000000 21.238001 35.849998 18.306240 # Oc LIG
391 11 9 0.000000 34.285999 13.251000 18.306240 # Oc LIG
392 12 9 0.000000 47.334000 35.849998 18.306240 # Oc LIG
393 5 10 0.000000 4.258000 6.452000 19.275242 # Zn LIG
394 6 10 0.000000 17.306000 29.052000 19.275242 # Zn LIG
395 7 10 0.000000 30.353001 6.452000 19.275242 # Zn LIG
396 8 10 0.000000 43.401001 29.052000 19.275242 # Zn LIG
397 1 10 0.000000 3.459000 8.152000 23.863241 # Zn LIG
398 2 10 0.000000 16.507000 30.750999 23.863241 # Zn LIG
399 3 10 0.000000 29.554001 8.152000 23.863241 # Zn LIG
400 4 10 0.000000 42.602001 30.750999 23.863241 # Zn LIG
401 13 10 0.000000 7.717000 14.605000 19.721241 # Zn LIG
402 14 10 0.000000 20.764999 37.203999 19.721241 # Zn LIG
403 15 10 0.000000 33.812000 14.605000 19.721241 # Zn LIG
404 16 10 0.000000 46.860001 37.203999 19.721241 # Zn LIG
405 1 7 0.000000 4.698000 6.678000 23.155241 # Oa LIG
406 2 7 0.000000 17.746000 29.277000 23.155241 # Oa LIG
407 3 7 0.000000 30.794001 6.678000 23.155241 # Oa LIG
408 4 7 0.000000 43.841000 29.277000 23.155241 # Oa LIG
409 1 7 0.000000 3.434000 7.658000 20.861240 # Oa LIG
410 2 7 0.000000 16.482000 30.257000 20.861240 # Oa LIG
411 3 7 0.000000 29.530001 7.658000 20.861240 # Oa LIG
412 4 7 0.000000 42.577000 30.257000 20.861240 # Oa LIG
413 17 9 0.000000 4.857000 9.348000 22.984241 # Oc LIG
414 18 9 0.000000 17.905001 31.947001 22.984241 # Oc LIG
415 19 9 0.000000 30.952000 9.348000 22.984241 # Oc LIG
416 20 9 0.000000 44.000000 31.947001 22.984241 # Oc LIG
417 21 9 0.000000 5.667000 6.186000 20.690241 # Oc LIG
418 22 9 0.000000 18.715000 28.785000 20.690241 # Oc LIG
419 23 9 0.000000 31.763000 6.186000 20.690241 # Oc LIG
420 24 9 0.000000 44.810001 28.785000 20.690241 # Oc LIG
421 17 4 0.000000 5.670000 10.272000 23.559240 # Cc LIG
422 18 4 0.000000 18.718000 32.870998 23.559240 # Cc LIG
423 19 4 0.000000 31.764999 10.272000 23.559240 # Cc LIG
424 20 4 0.000000 44.813000 32.870998 23.559240 # Cc LIG
425 25 2 0.000000 7.324000 13.429000 22.302240 # Ca LIG
426 26 2 0.000000 20.371000 36.028000 22.302240 # Ca LIG
427 27 2 0.000000 33.418999 13.429000 22.302240 # Ca LIG
428 28 2 0.000000 46.466999 36.028000 22.302240 # Ca LIG
429 17 3 0.000000 6.944000 12.355000 23.250240 # Cb LIG
430 18 3 0.000000 19.992001 34.953999 23.250240 # Cb LIG
431 19 3 0.000000 33.039001 12.355000 23.250240 # Cb LIG
432 20 3 0.000000 46.087002 34.953999 23.250240 # Cb LIG
433 9 4 0.000000 7.378000 12.327000 17.730240 # Cc LIG
434 10 4 0.000000 20.424999 34.925999 17.730240 # Cc LIG
435 11 4 0.000000 33.473000 12.327000 17.730240 # Cc LIG
436 12 4 0.000000 46.521000 34.925999 17.730240 # Cc LIG
437 17 5 0.000000 6.111000 11.337000 22.770241 # Cd LIG
438 18 5 0.000000 19.159000 33.936001 22.770241 # Cd LIG
439 19 5 0.000000 32.206001 11.337000 22.770241 # Cd LIG
440 20 5 0.000000 45.254002 33.936001 22.770241 # Cd LIG
441 17 6 0.000000 5.790000 11.379000 21.732241 # H LIG
442 18 6 0.000000 18.837000 33.978001 21.732241 # H LIG
443 19 6 0.000000 31.885000 11.379000 21.732241 # H LIG
444 20 6 0.000000 44.932999 33.978001 21.732241 # H LIG
445 25 8 0.000000 6.857000 13.431000 21.113241 # Ob LIG
446 26 8 0.000000 19.905001 36.029999 21.113241 # Ob LIG
447 27 8 0.000000 32.952000 13.431000 21.113241 # Ob LIG
448 28 8 0.000000 46.000000 36.029999 21.113241 # Ob LIG
449 25 7 0.000000 8.133000 14.336000 22.723240 # Oa LIG
450 26 7 0.000000 21.180000 36.936001 22.723240 # Oa LIG
451 27 7 0.000000 34.228001 14.336000 22.723240 # Oa LIG
452 28 7 0.000000 47.276001 36.936001 22.723240 # Oa LIG
453 25 10 0.000000 8.790000 16.146999 22.015240 # Zn LIG
454 26 10 0.000000 21.837000 38.745998 22.015240 # Zn LIG
455 27 10 0.000000 34.884998 16.146999 22.015240 # Zn LIG
456 28 10 0.000000 47.932999 38.745998 22.015240 # Zn LIG
457 28 10 0.000000 9.589000 14.447000 17.427240 # Zn LIG
458 28 10 0.000000 22.636000 37.046001 17.427240 # Zn LIG
459 28 10 0.000000 35.683998 14.447000 17.427240 # Zn LIG
460 28 10 0.000000 48.731998 37.046001 17.427240 # Zn LIG
461 28 7 0.000000 8.349000 15.921000 18.135241 # Oa LIG
462 28 7 0.000000 21.396999 38.520000 18.135241 # Oa LIG
463 28 7 0.000000 34.445000 15.921000 18.135241 # Oa LIG
464 28 7 0.000000 47.492001 38.520000 18.135241 # Oa LIG
465 13 7 0.000000 9.613000 14.941000 20.429241 # Oa LIG
466 14 7 0.000000 22.660999 37.540001 20.429241 # Oa LIG
467 15 7 0.000000 35.709000 14.941000 20.429241 # Oa LIG
468 16 7 0.000000 48.756001 37.540001 20.429241 # Oa LIG
469 28 9 0.000000 7.380000 16.413000 20.600241 # Oc LIG
470 28 9 0.000000 20.427999 39.013000 20.600241 # Oc LIG
471 28 9 0.000000 33.476002 16.413000 20.600241 # Oc LIG
472 28 9 0.000000 46.522999 39.013000 20.600241 # Oc LIG
473 28 10 0.000000 8.790000 31.212999 19.721241 # Zn LIG
474 28 10 0.000000 21.837000 8.614000 19.721241 # Zn LIG
475 28 10 0.000000 34.884998 31.212999 19.721241 # Zn LIG
476 28 10 0.000000 47.932999 8.614000 19.721241 # Zn LIG
477 28 10 0.000000 9.589000 29.513000 22.015240 # Zn LIG
478 28 10 0.000000 22.636000 6.914000 22.015240 # Zn LIG
479 28 10 0.000000 35.683998 29.513000 22.015240 # Zn LIG
480 28 10 0.000000 48.731998 6.914000 22.015240 # Zn LIG
481 28 7 0.000000 9.613000 30.007000 18.135241 # Oa LIG
482 28 7 0.000000 22.660999 7.408000 18.135241 # Oa LIG
483 28 7 0.000000 35.709000 30.007000 18.135241 # Oa LIG
484 28 7 0.000000 48.756001 7.408000 18.135241 # Oa LIG
485 28 7 0.000000 8.349000 30.987000 22.723240 # Oa LIG
486 28 7 0.000000 21.396999 8.388000 22.723240 # Oa LIG
487 28 7 0.000000 34.445000 30.987000 22.723240 # Oa LIG
488 28 7 0.000000 47.492001 8.388000 22.723240 # Oa LIG
489 28 7 0.000000 4.698000 21.743999 20.861240 # Oa LIG
490 28 7 0.000000 17.746000 44.342999 20.861240 # Oa LIG
491 28 7 0.000000 30.794001 21.743999 20.861240 # Oa LIG
492 28 7 0.000000 43.841000 44.342999 20.861240 # Oa LIG
493 28 9 0.000000 5.667000 21.252001 18.396240 # Oc LIG
494 28 9 0.000000 18.715000 43.851002 18.396240 # Oc LIG
495 28 9 0.000000 31.763000 21.252001 18.396240 # Oc LIG
496 28 9 0.000000 44.810001 43.851002 18.396240 # Oc LIG
497 28 10 0.000000 4.258000 21.518000 23.863241 # Zn LIG
498 29 10 0.000000 17.306000 44.118000 23.863241 # Zn LIG
499 28 10 0.000000 30.353001 21.518000 23.863241 # Zn LIG
500 30 10 0.000000 43.401001 44.118000 23.863241 # Zn LIG
501 31 10 0.000000 8.790000 1.081000 17.427240 # Zn LIG
502 28 10 0.000000 21.837000 23.680000 17.427240 # Zn LIG
503 32 10 0.000000 34.884998 1.081000 17.427240 # Zn LIG
504 28 10 0.000000 47.932999 23.680000 17.427240 # Zn LIG
505 28 7 0.000000 8.349000 0.855000 20.429241 # Oa LIG
506 28 7 0.000000 21.396999 23.454000 20.429241 # Oa LIG
507 28 7 0.000000 34.445000 0.855000 20.429241 # Oa LIG
508 28 7 0.000000 47.492001 23.454000 20.429241 # Oa LIG
509 28 9 0.000000 7.380000 1.347000 22.894241 # Oc LIG
510 28 9 0.000000 20.427999 23.947001 22.894241 # Oc LIG
511 28 9 0.000000 33.476002 1.347000 22.894241 # Oc LIG
512 28 9 0.000000 46.522999 23.947001 22.894241 # Oc LIG
513 28 9 0.000000 4.857000 39.480000 18.396240 # Oc LIG
514 28 9 0.000000 17.905001 16.881001 18.396240 # Oc LIG
515 28 9 0.000000 30.952999 39.480000 18.396240 # Oc LIG
516 28 9 0.000000 44.000000 16.881001 18.396240 # Oc LIG
517 28 10 0.000000 5.331000 38.126999 23.863241 # Zn LIG
518 28 10 0.000000 18.378000 15.527000 23.863241 # Zn LIG
519 28 10 0.000000 31.426001 38.126999 23.863241 # Zn LIG
520 28 10 0.000000 44.473999 15.527000 23.863241 # Zn LIG
521 28 2 0.000000 5.724000 39.301998 21.282242 # Ca LIG
522 28 2 0.000000 18.771999 16.702999 21.282242 # Ca LIG
523 28 2 0.000000 31.819000 39.301998 21.282242 # Ca LIG
524 28 2 0.000000 44.867001 16.702999 21.282242 # Ca LIG
525 28 3 0.000000 6.104000 40.375999 20.334240 # Cb LIG
526 28 3 0.000000 19.150999 17.777000 20.334240 # Cb LIG
527 28 3 0.000000 32.199001 40.375999 20.334240 # Cb LIG
528 28 3 0.000000 45.247002 17.777000 20.334240 # Cb LIG
529 28 4 0.000000 5.670000 40.403999 18.972240 # Cc LIG
530 28 4 0.000000 18.718000 17.805000 18.972240 # Cc LIG
531 28 4 0.000000 31.764999 40.403999 18.972240 # Cc LIG
532 28 4 0.000000 44.813000 17.805000 18.972240 # Cc LIG
533 28 5 0.000000 6.937000 41.394001 20.814240 # Cd LIG
534 28 5 0.000000 19.983999 18.795000 20.814240 # Cd LIG
535 28 5 0.000000 33.032001 41.394001 20.814240 # Cd LIG
536 28 5 0.000000 46.080002 18.795000 20.814240 # Cd LIG
537 28 6 0.000000 7.258000 41.353001 21.852242 # H LIG
538 28 6 0.000000 20.306000 18.754000 21.852242 # H LIG
539 28 6 0.000000 33.353001 41.353001 21.852242 # H LIG