LAMMPS data file. CGCMM style. atom_style full generated by VMD/TopoTools v1.5 on Sat Apr 22 10:14:59 PDT 2017
 1481 atoms
 0 bonds
 0 angles
 0 dihedrals
 0 impropers
 10 atom types
 0 bond types
 0 angle types
 0 dihedral types
 0 improper types
 0.444700 26.558700  xlo xhi
 0.314250 45.544250  ylo yhi
 -0.294500 27.372500  zlo zhi

# Pair Coeffs
#
# 1  CH4
# 2  Ca
# 3  Cb
# 4  Cc
# 5  Cd
# 6  H
# 7  Mg
# 8  Oa
# 9  Ob
# 10  Oc

 Masses

 1 16.040001 # CH4
 2 12.011000 # Ca
 3 12.011000 # Cb
 4 12.011000 # Cc
 5 12.011000 # Cd
 6 1.008000 # H
 7 24.305000 # Mg
 8 15.999000 # Oa
 9 15.999000 # Ob
 10 15.999000 # Oc

 Atoms

1 1 1 0.000000 26.114401 45.230499 14.128000 # CH4 
2 2 1 0.000000 26.114401 45.230499 14.717000 # CH4 
3 3 1 0.000000 26.114401 45.230499 15.304999 # CH4 
4 4 1 0.000000 26.114401 45.230499 15.894000 # CH4 
5 5 1 0.000000 26.114401 45.230499 16.481998 # CH4 
6 6 1 0.000000 26.114401 45.230499 17.070999 # CH4 
7 7 1 0.000000 26.114401 45.230499 17.660000 # CH4 
8 8 1 0.000000 26.114401 45.230499 18.248001 # CH4 
9 9 1 0.000000 26.114401 45.230499 18.837000 # CH4 
10 10 1 0.000000 26.114401 45.230499 19.425999 # CH4 
11 11 1 0.000000 26.114401 45.230499 20.014000 # CH4 
12 12 1 0.000000 26.114401 45.230499 20.603001 # CH4 
13 13 1 0.000000 26.114401 45.230499 21.191999 # CH4 
14 14 1 0.000000 26.114401 45.230499 21.779999 # CH4 
15 15 1 0.000000 26.114401 45.230499 22.368999 # CH4 
16 16 1 0.000000 26.114401 45.230499 22.958000 # CH4 
17 17 1 0.000000 26.114401 45.230499 23.546000 # CH4 
18 18 1 0.000000 26.114401 45.230499 24.135000 # CH4 
19 19 1 0.000000 26.114401 45.230499 24.723999 # CH4 
20 20 1 0.000000 26.114401 45.230499 25.312000 # CH4 
21 21 1 0.000000 26.114401 45.230499 25.900999 # CH4 
22 22 1 0.000000 26.114401 45.230499 26.490000 # CH4 
23 23 1 0.000000 26.114401 45.230499 27.077999 # CH4 
24 24 1 0.000000 26.114401 45.230499 0.000000 # CH4 
25 25 1 0.000000 26.114401 45.230499 0.589000 # CH4 
26 26 1 0.000000 26.114401 45.230499 1.177000 # CH4 
27 27 1 0.000000 26.114401 45.230499 1.766000 # CH4 
28 28 1 0.000000 26.114401 45.230499 2.355000 # CH4 
29 29 1 0.000000 26.114401 45.230499 2.943000 # CH4 
30 30 1 0.000000 26.114401 45.230499 3.532000 # CH4 
31 31 1 0.000000 26.114401 45.230499 4.121000 # CH4 
32 32 1 0.000000 26.114401 45.230499 4.709000 # CH4 
33 33 1 0.000000 26.114401 45.230499 5.298000 # CH4 
34 34 1 0.000000 26.114401 45.230499 5.887000 # CH4 
35 35 1 0.000000 26.114401 45.230499 6.475000 # CH4 
36 36 1 0.000000 26.114401 45.230499 7.064000 # CH4 
37 37 1 0.000000 26.114401 45.230499 7.653000 # CH4 
38 38 1 0.000000 26.114401 45.230499 8.241000 # CH4 
39 39 1 0.000000 26.114401 45.230499 8.830000 # CH4 
40 40 1 0.000000 26.114401 45.230499 9.419000 # CH4 
41 41 1 0.000000 26.114401 45.230499 10.007000 # CH4 
42 42 1 0.000000 26.114401 45.230499 10.596000 # CH4 
43 43 1 0.000000 26.114401 45.230499 11.185000 # CH4 
44 44 1 0.000000 26.114401 45.230499 11.773000 # CH4 
45 45 1 0.000000 26.114401 45.230499 12.362000 # CH4 
46 46 1 0.000000 26.114401 45.230499 12.950000 # CH4 
47 47 1 0.000000 26.114401 45.230499 13.539000 # CH4 
48 48 1 0.000000 26.114401 22.614500 14.128000 # CH4 
49 49 1 0.000000 26.114401 22.614500 14.717000 # CH4 
50 50 1 0.000000 26.114401 22.614500 15.304999 # CH4 
51 51 1 0.000000 26.114401 22.614500 15.894000 # CH4 
52 52 1 0.000000 26.114401 22.614500 16.481998 # CH4 
53 53 1 0.000000 26.114401 22.614500 17.070999 # CH4 
54 54 1 0.000000 26.114401 22.614500 17.660000 # CH4 
55 55 1 0.000000 26.114401 22.614500 18.248001 # CH4 
56 56 1 0.000000 26.114401 22.614500 18.837000 # CH4 
57 57 1 0.000000 26.114401 22.614500 19.425999 # CH4 
58 58 1 0.000000 26.114401 22.614500 20.014000 # CH4 
59 59 1 0.000000 26.114401 22.614500 20.603001 # CH4 
60 60 1 0.000000 26.114401 22.614500 21.191999 # CH4 
61 61 1 0.000000 26.114401 22.614500 21.779999 # CH4 
62 62 1 0.000000 26.114401 22.614500 22.368999 # CH4 
63 63 1 0.000000 26.114401 22.614500 22.958000 # CH4 
64 64 1 0.000000 26.114401 22.614500 23.546000 # CH4 
65 65 1 0.000000 26.114401 22.614500 24.135000 # CH4 
66 66 1 0.000000 26.114401 22.614500 24.723999 # CH4 
67 67 1 0.000000 26.114401 22.614500 25.312000 # CH4 
68 68 1 0.000000 26.114401 22.614500 25.900999 # CH4 
69 69 1 0.000000 26.114401 22.614500 26.490000 # CH4 
70 70 1 0.000000 26.114401 22.614500 27.077999 # CH4 
71 71 1 0.000000 26.114401 22.614500 0.000000 # CH4 
72 72 1 0.000000 26.114401 22.614500 0.589000 # CH4 
73 73 1 0.000000 26.114401 22.614500 1.177000 # CH4 
74 74 1 0.000000 26.114401 22.614500 1.766000 # CH4 
75 75 1 0.000000 26.114401 22.614500 2.355000 # CH4 
76 76 1 0.000000 26.114401 22.614500 2.943000 # CH4 
77 77 1 0.000000 26.114401 22.614500 3.532000 # CH4 
78 78 1 0.000000 26.114401 22.614500 4.121000 # CH4 
79 79 1 0.000000 26.114401 22.614500 4.709000 # CH4 
80 80 1 0.000000 26.114401 22.614500 5.298000 # CH4 
81 81 1 0.000000 26.114401 22.614500 5.887000 # CH4 
82 82 1 0.000000 26.114401 22.614500 6.475000 # CH4 
83 83 1 0.000000 26.114401 22.614500 7.064000 # CH4 
84 84 1 0.000000 26.114401 22.614500 7.653000 # CH4 
85 85 1 0.000000 26.114401 22.614500 8.241000 # CH4 
86 86 1 0.000000 26.114401 22.614500 8.830000 # CH4 
87 87 1 0.000000 26.114401 22.614500 9.419000 # CH4 
88 88 1 0.000000 26.114401 22.614500 10.007000 # CH4 
89 89 1 0.000000 26.114401 22.614500 10.596000 # CH4 
90 90 1 0.000000 26.114401 22.614500 11.185000 # CH4 
91 91 1 0.000000 26.114401 22.614500 11.773000 # CH4 
92 92 1 0.000000 26.114401 22.614500 12.362000 # CH4 
93 93 1 0.000000 26.114401 22.614500 12.950000 # CH4 
94 94 1 0.000000 26.114401 22.614500 13.539000 # CH4 
95 95 1 0.000000 13.056400 45.230499 14.128000 # CH4 
96 96 1 0.000000 13.056400 45.230499 14.717000 # CH4 
97 97 1 0.000000 13.056400 45.230499 15.304999 # CH4 
98 98 1 0.000000 13.056400 45.230499 15.894000 # CH4 
99 99 1 0.000000 13.056400 45.230499 16.481998 # CH4 
100 100 1 0.000000 13.056400 45.230499 17.070999 # CH4 
101 101 1 0.000000 13.056400 45.230499 17.660000 # CH4 
102 102 1 0.000000 13.056400 45.230499 18.248001 # CH4 
103 103 1 0.000000 13.056400 45.230499 18.837000 # CH4 
104 104 1 0.000000 13.056400 45.230499 19.425999 # CH4 
105 105 1 0.000000 13.056400 45.230499 20.014000 # CH4 
106 106 1 0.000000 13.056400 45.230499 20.603001 # CH4 
107 107 1 0.000000 13.056400 45.230499 21.191999 # CH4 
108 108 1 0.000000 13.056400 45.230499 21.779999 # CH4 
109 109 1 0.000000 13.056400 45.230499 22.368999 # CH4 
110 110 1 0.000000 13.056400 45.230499 22.958000 # CH4 
111 111 1 0.000000 13.056400 45.230499 23.546000 # CH4 
112 112 1 0.000000 13.056400 45.230499 24.135000 # CH4 
113 113 1 0.000000 13.056400 45.230499 24.723999 # CH4 
114 114 1 0.000000 13.056400 45.230499 25.312000 # CH4 
115 115 1 0.000000 13.056400 45.230499 25.900999 # CH4 
116 116 1 0.000000 13.056400 45.230499 26.490000 # CH4 
117 117 1 0.000000 13.056400 45.230499 27.077999 # CH4 
118 118 1 0.000000 13.056400 45.230499 0.000000 # CH4 
119 119 1 0.000000 13.056400 45.230499 0.589000 # CH4 
120 120 1 0.000000 13.056400 45.230499 1.177000 # CH4 
121 121 1 0.000000 13.056400 45.230499 1.766000 # CH4 
122 122 1 0.000000 13.056400 45.230499 2.355000 # CH4 
123 123 1 0.000000 13.056400 45.230499 2.943000 # CH4 
124 124 1 0.000000 13.056400 45.230499 3.532000 # CH4 
125 125 1 0.000000 13.056400 45.230499 4.121000 # CH4 
126 126 1 0.000000 13.056400 45.230499 4.709000 # CH4 
127 127 1 0.000000 13.056400 45.230499 5.298000 # CH4 
128 128 1 0.000000 13.056400 45.230499 5.887000 # CH4 
129 129 1 0.000000 13.056400 45.230499 6.475000 # CH4 
130 130 1 0.000000 13.056400 45.230499 7.064000 # CH4 
131 131 1 0.000000 13.056400 45.230499 7.653000 # CH4 
132 132 1 0.000000 13.056400 45.230499 8.241000 # CH4 
133 133 1 0.000000 13.056400 45.230499 8.830000 # CH4 
134 134 1 0.000000 13.056400 45.230499 9.419000 # CH4 
135 135 1 0.000000 13.056400 45.230499 10.007000 # CH4 
136 136 1 0.000000 13.056400 45.230499 10.596000 # CH4 
137 137 1 0.000000 13.056400 45.230499 11.185000 # CH4 
138 138 1 0.000000 13.056400 45.230499 11.773000 # CH4 
139 139 1 0.000000 13.056400 45.230499 12.362000 # CH4 
140 140 1 0.000000 13.056400 45.230499 12.950000 # CH4 
141 141 1 0.000000 13.056400 45.230499 13.539000 # CH4 
142 142 1 0.000000 13.056400 22.614500 14.128000 # CH4 
143 143 1 0.000000 13.056400 22.614500 14.717000 # CH4 
144 144 1 0.000000 13.056400 22.614500 15.304999 # CH4 
145 145 1 0.000000 13.056400 22.614500 15.894000 # CH4 
146 146 1 0.000000 13.056400 22.614500 16.481998 # CH4 
147 147 1 0.000000 13.056400 22.614500 17.070999 # CH4 
148 148 1 0.000000 13.056400 22.614500 17.660000 # CH4 
149 149 1 0.000000 13.056400 22.614500 18.248001 # CH4 
150 150 1 0.000000 13.056400 22.614500 18.837000 # CH4 
151 151 1 0.000000 13.056400 22.614500 19.425999 # CH4 
152 152 1 0.000000 13.056400 22.614500 20.014000 # CH4 
153 153 1 0.000000 13.056400 22.614500 20.603001 # CH4 
154 154 1 0.000000 13.056400 22.614500 21.191999 # CH4 
155 155 1 0.000000 13.056400 22.614500 21.779999 # CH4 
156 156 1 0.000000 13.056400 22.614500 22.368999 # CH4 
157 157 1 0.000000 13.056400 22.614500 22.958000 # CH4 
158 158 1 0.000000 13.056400 22.614500 23.546000 # CH4 
159 159 1 0.000000 13.056400 22.614500 24.135000 # CH4 
160 160 1 0.000000 13.056400 22.614500 24.723999 # CH4 
161 161 1 0.000000 13.056400 22.614500 25.312000 # CH4 
162 162 1 0.000000 13.056400 22.614500 25.900999 # CH4 
163 163 1 0.000000 13.056400 22.614500 26.490000 # CH4 
164 164 1 0.000000 13.056400 22.614500 27.077999 # CH4 
165 165 1 0.000000 13.056400 22.614500 0.000000 # CH4 
166 166 1 0.000000 13.056400 22.614500 0.589000 # CH4 
167 167 1 0.000000 13.056400 22.614500 1.177000 # CH4 
168 168 1 0.000000 13.056400 22.614500 1.766000 # CH4 
169 169 1 0.000000 13.056400 22.614500 2.355000 # CH4 
170 170 1 0.000000 13.056400 22.614500 2.943000 # CH4 
171 171 1 0.000000 13.056400 22.614500 3.532000 # CH4 
172 172 1 0.000000 13.056400 22.614500 4.121000 # CH4 
173 173 1 0.000000 13.056400 22.614500 4.709000 # CH4 
174 174 1 0.000000 13.056400 22.614500 5.298000 # CH4 
175 175 1 0.000000 13.056400 22.614500 5.887000 # CH4 
176 176 1 0.000000 13.056400 22.614500 6.475000 # CH4 
177 177 1 0.000000 13.056400 22.614500 7.064000 # CH4 
178 178 1 0.000000 13.056400 22.614500 7.653000 # CH4 
179 179 1 0.000000 13.056400 22.614500 8.241000 # CH4 
180 180 1 0.000000 13.056400 22.614500 8.830000 # CH4 
181 181 1 0.000000 13.056400 22.614500 9.419000 # CH4 
182 182 1 0.000000 13.056400 22.614500 10.007000 # CH4 
183 183 1 0.000000 13.056400 22.614500 10.596000 # CH4 
184 184 1 0.000000 13.056400 22.614500 11.185000 # CH4 
185 185 1 0.000000 13.056400 22.614500 11.773000 # CH4 
186 186 7 0.000000 5.314000 7.966000 21.684460 # Mg LIG
187 186 7 0.000000 18.371000 30.580999 21.684460 # Mg LIG
188 186 7 0.000000 4.242000 6.491000 19.378460 # Mg LIG
189 186 7 0.000000 17.299000 29.106001 19.378460 # Mg LIG
190 186 7 0.000000 3.501000 8.158000 23.990459 # Mg LIG
191 186 7 0.000000 16.558001 30.773001 23.990459 # Mg LIG
192 186 7 0.000000 7.743000 14.649000 19.815460 # Mg LIG
193 186 7 0.000000 20.799000 37.264000 19.815460 # Mg LIG
194 186 7 0.000000 8.815000 16.124001 22.120461 # Mg LIG
195 186 7 0.000000 21.872000 38.738998 22.120461 # Mg LIG
196 186 7 0.000000 9.556000 14.457000 17.509460 # Mg LIG
197 186 7 0.000000 22.613001 37.071999 17.509460 # Mg LIG
198 186 7 0.000000 8.815000 31.200001 19.815460 # Mg LIG
199 186 7 0.000000 21.872000 8.585000 19.815460 # Mg LIG
200 186 7 0.000000 9.556000 29.534000 22.120461 # Mg LIG
201 186 7 0.000000 22.613001 6.919000 22.120461 # Mg LIG
202 186 7 0.000000 4.242000 21.568001 23.990459 # Mg LIG
203 186 7 0.000000 17.299000 44.182999 23.990459 # Mg LIG
204 186 7 0.000000 8.815000 1.047000 17.509460 # Mg LIG
205 186 7 0.000000 21.872000 23.662001 17.509460 # Mg LIG
206 186 7 0.000000 5.314000 38.118999 23.990459 # Mg LIG
207 186 7 0.000000 18.371000 15.504000 23.990459 # Mg LIG
208 186 7 0.000000 7.743000 44.801998 22.120461 # Mg LIG
209 186 7 0.000000 20.799000 22.187000 22.120461 # Mg LIG
210 186 7 0.000000 9.556000 44.611000 19.815460 # Mg LIG
211 186 7 0.000000 22.613001 21.996000 19.815460 # Mg LIG
212 186 7 0.000000 3.501000 38.311001 19.378460 # Mg LIG
213 186 7 0.000000 16.558001 15.696000 19.378460 # Mg LIG
214 186 7 0.000000 4.242000 36.645000 21.684460 # Mg LIG
215 186 7 0.000000 17.299000 14.030000 21.684460 # Mg LIG
216 186 7 0.000000 5.314000 23.042999 19.378460 # Mg LIG
217 186 7 0.000000 18.371000 0.428000 19.378460 # Mg LIG
218 186 7 0.000000 3.501000 23.233999 21.684460 # Mg LIG
219 186 7 0.000000 16.558001 0.619000 21.684460 # Mg LIG
220 186 7 0.000000 7.743000 29.726000 17.509460 # Mg LIG
221 186 7 0.000000 20.799000 7.111000 17.509460 # Mg LIG
222 186 2 0.000000 5.704000 9.170000 19.055460 # Ca LIG
223 186 2 0.000000 18.761000 31.785000 19.055460 # Ca LIG
224 186 3 0.000000 6.098000 10.247000 18.115459 # Cb LIG
225 186 3 0.000000 19.155001 32.862000 18.115459 # Cb LIG
226 186 5 0.000000 6.932000 11.258000 18.610460 # Cd LIG
227 186 5 0.000000 19.989000 33.873001 18.610460 # Cd LIG
228 186 6 0.000000 7.248000 11.206000 19.650459 # H LIG
229 186 6 0.000000 20.305000 33.820999 19.650459 # H LIG
230 186 9 0.000000 6.149000 9.140000 20.245461 # Ob LIG
231 186 9 0.000000 19.205999 31.754999 20.245461 # Ob LIG
232 186 8 0.000000 4.881000 8.269000 18.627460 # Oa LIG
233 186 8 0.000000 17.938000 30.884001 18.627460 # Oa LIG
234 186 10 0.000000 8.183000 13.257000 18.410460 # Oc LIG
235 186 10 0.000000 21.240000 35.872002 18.410460 # Oc LIG
236 186 8 0.000000 4.721000 6.715000 23.238461 # Oa LIG
237 186 8 0.000000 17.777000 29.330000 23.238461 # Oa LIG
238 186 8 0.000000 3.455000 7.631000 20.933460 # Oa LIG
239 186 8 0.000000 16.511000 30.246000 20.933460 # Oa LIG
240 186 10 0.000000 4.874000 9.358000 23.088459 # Oc LIG
241 186 10 0.000000 17.930000 31.973000 23.088459 # Oc LIG
242 186 10 0.000000 5.668000 6.177000 20.783461 # Oc LIG
243 186 10 0.000000 18.725000 28.792000 20.783461 # Oc LIG
244 186 4 0.000000 5.672000 10.284000 23.664459 # Cc LIG
245 186 4 0.000000 18.729000 32.898998 23.664459 # Cc LIG
246 186 2 0.000000 7.353000 13.445000 22.444460 # Ca LIG
247 186 2 0.000000 20.409000 36.060001 22.444460 # Ca LIG
248 186 3 0.000000 6.959000 12.368000 23.384460 # Cb LIG
249 186 3 0.000000 20.016001 34.983002 23.384460 # Cb LIG
250 186 4 0.000000 7.384000 12.331000 17.835461 # Cc LIG
251 186 4 0.000000 20.441000 34.945999 17.835461 # Cc LIG
252 186 5 0.000000 6.125000 11.357000 22.889460 # Cd LIG
253 186 5 0.000000 19.181000 33.972000 22.889460 # Cd LIG
254 186 6 0.000000 5.809000 11.409000 21.849461 # H LIG
255 186 6 0.000000 18.865999 34.023998 21.849461 # H LIG
256 186 9 0.000000 6.908000 13.475000 21.254459 # Ob LIG
257 186 9 0.000000 19.965000 36.090000 21.254459 # Ob LIG
258 186 8 0.000000 8.175000 14.346000 22.871460 # Oa LIG
259 186 8 0.000000 21.232000 36.960999 22.871460 # Oa LIG
260 186 8 0.000000 8.336000 15.900000 18.260460 # Oa LIG
261 186 8 0.000000 21.393000 38.514999 18.260460 # Oa LIG
262 186 8 0.000000 9.602000 14.984000 20.566460 # Oa LIG
263 186 8 0.000000 22.659000 37.598999 20.566460 # Oa LIG
264 186 10 0.000000 7.389000 16.438000 20.716461 # Oc LIG
265 186 10 0.000000 20.445999 39.053001 20.716461 # Oc LIG
266 186 8 0.000000 9.602000 30.059999 18.260460 # Oa LIG
267 186 8 0.000000 22.659000 7.445000 18.260460 # Oa LIG
268 186 8 0.000000 8.336000 30.976999 22.871460 # Oa LIG
269 186 8 0.000000 21.393000 8.362000 22.871460 # Oa LIG
270 186 8 0.000000 4.721000 21.791000 20.933460 # Oa LIG
271 186 8 0.000000 17.777000 44.405998 20.933460 # Oa LIG
272 186 10 0.000000 5.668000 21.254000 18.477459 # Oc LIG
273 186 10 0.000000 18.725000 43.868999 18.477459 # Oc LIG
274 186 8 0.000000 8.336000 0.824000 20.566460 # Oa LIG
275 186 8 0.000000 21.393000 23.438999 20.566460 # Oa LIG
276 186 10 0.000000 7.389000 1.361000 23.021460 # Oc LIG
277 186 10 0.000000 20.445999 23.976000 23.021460 # Oc LIG
278 186 10 0.000000 4.874000 39.512001 18.477459 # Oc LIG
279 186 10 0.000000 17.930000 16.896999 18.477459 # Oc LIG
280 186 2 0.000000 5.704000 39.324001 21.360460 # Ca LIG
281 186 2 0.000000 18.761000 16.709000 21.360460 # Ca LIG
282 186 3 0.000000 6.098000 40.401001 20.421459 # Cb LIG
283 186 3 0.000000 19.155001 17.785999 20.421459 # Cb LIG
284 186 4 0.000000 5.672000 40.438000 19.053459 # Cc LIG
285 186 4 0.000000 18.729000 17.823000 19.053459 # Cc LIG
286 186 5 0.000000 6.932000 41.410999 20.916460 # Cd LIG
287 186 5 0.000000 19.989000 18.796000 20.916460 # Cd LIG
288 186 6 0.000000 7.248000 41.359001 21.955460 # H LIG
289 186 6 0.000000 20.305000 18.743999 21.955460 # H LIG
290 186 9 0.000000 6.149000 39.292999 22.550461 # Ob LIG
291 186 9 0.000000 19.205999 16.677999 22.550461 # Ob LIG
292 186 8 0.000000 4.882000 38.423000 20.933460 # Oa LIG
293 186 8 0.000000 17.938000 15.808000 20.933460 # Oa LIG
294 186 3 0.000000 6.959000 42.521000 18.773460 # Cb LIG
295 186 3 0.000000 20.016001 19.906000 18.773460 # Cb LIG
296 186 4 0.000000 7.384000 42.484001 20.140461 # Cc LIG
297 186 4 0.000000 20.441000 19.868999 20.140461 # Cc LIG
298 186 5 0.000000 6.125000 41.509998 18.277460 # Cd LIG
299 186 5 0.000000 19.181000 18.895000 18.277460 # Cd LIG
300 186 8 0.000000 8.175000 44.499001 18.260460 # Oa LIG
301 186 8 0.000000 21.232000 21.884001 18.260460 # Oa LIG
302 186 10 0.000000 8.183000 43.410000 20.716461 # Oc LIG
303 186 10 0.000000 21.240000 20.795000 20.716461 # Oc LIG
304 186 10 0.000000 5.668000 36.330002 23.088459 # Oc LIG
305 186 10 0.000000 18.725000 13.715000 23.088459 # Oc LIG
306 186 2 0.000000 7.353000 43.598000 17.833460 # Ca LIG
307 186 2 0.000000 20.409000 20.983000 17.833460 # Ca LIG
308 186 9 0.000000 6.908000 43.627998 23.559460 # Ob LIG
309 186 9 0.000000 19.965000 21.013000 23.559460 # Ob LIG
310 186 8 0.000000 9.602000 45.137001 22.871460 # Oa LIG
311 186 8 0.000000 22.659000 22.521999 22.871460 # Oa LIG
312 186 8 0.000000 4.721000 36.868000 18.627460 # Oa LIG
313 186 8 0.000000 17.778000 14.253000 18.627460 # Oa LIG
314 186 8 0.000000 3.455000 37.785000 23.238461 # Oa LIG
315 186 8 0.000000 16.511000 15.170000 23.238461 # Oa LIG
316 186 10 0.000000 2.515000 22.156000 23.088459 # Oc LIG
317 186 10 0.000000 15.572000 44.771000 23.088459 # Oc LIG
318 186 4 0.000000 1.314000 22.385000 23.664459 # Cc LIG
319 186 4 0.000000 14.371000 45.000000 23.664459 # Cc LIG
320 186 2 0.000000 10.794000 44.875000 22.444460 # Ca LIG
321 186 2 0.000000 23.851000 22.260000 22.444460 # Ca LIG
322 186 3 0.000000 11.924000 45.073002 23.384460 # Cb LIG
323 186 3 0.000000 24.980000 22.458000 23.384460 # Cb LIG
324 186 5 0.000000 0.159000 22.240999 22.889460 # Cd LIG
325 186 5 0.000000 13.216000 44.855999 22.889460 # Cd LIG
326 186 6 0.000000 0.271000 21.941000 21.849461 # H LIG
327 186 6 0.000000 13.328000 44.556000 21.849461 # H LIG
328 186 9 0.000000 10.990000 44.474998 21.254459 # Ob LIG
329 186 9 0.000000 24.047001 21.860001 21.254459 # Ob LIG
330 186 4 0.000000 6.070000 35.174999 23.664459 # Cc LIG
331 186 4 0.000000 19.127001 12.560000 23.664459 # Cc LIG
332 186 2 0.000000 7.967000 32.139999 22.444460 # Ca LIG
333 186 2 0.000000 21.024000 9.525000 22.444460 # Ca LIG
334 186 3 0.000000 7.231000 33.020000 23.384460 # Cb LIG
335 186 3 0.000000 20.288000 10.405000 23.384460 # Cb LIG
336 186 5 0.000000 6.773000 34.248001 22.889460 # Cd LIG
337 186 5 0.000000 19.830000 11.633000 22.889460 # Cd LIG
338 186 6 0.000000 6.977000 34.494999 21.849461 # H LIG
339 186 6 0.000000 20.033001 11.880000 21.849461 # H LIG
340 186 9 0.000000 8.216000 32.509998 21.254459 # Ob LIG
341 186 9 0.000000 21.273001 9.895000 21.254459 # Ob LIG
342 186 10 0.000000 10.541000 30.612000 20.716461 # Oc LIG
343 186 10 0.000000 23.598000 7.997000 20.716461 # Oc LIG
344 186 2 0.000000 5.090000 35.705002 19.055460 # Ca LIG
345 186 2 0.000000 18.146000 13.090000 19.055460 # Ca LIG
346 186 3 0.000000 5.826000 34.825001 18.115459 # Cb LIG
347 186 3 0.000000 18.882000 12.210000 18.115459 # Cb LIG
348 186 5 0.000000 6.284000 33.597000 18.610460 # Cd LIG
349 186 5 0.000000 19.341000 10.982000 18.610460 # Cd LIG
350 186 6 0.000000 6.080000 33.349998 19.650459 # H LIG
351 186 6 0.000000 19.136999 10.735000 19.650459 # H LIG
352 186 9 0.000000 4.841000 35.334999 20.245461 # Ob LIG
353 186 9 0.000000 17.898001 12.720000 20.245461 # Ob LIG
354 186 10 0.000000 2.515000 37.233002 20.783461 # Oc LIG
355 186 10 0.000000 15.572000 14.618000 20.783461 # Oc LIG
356 186 9 0.000000 2.067000 38.446999 17.939461 # Ob LIG
357 186 9 0.000000 15.124000 15.832000 17.939461 # Ob LIG
358 186 2 0.000000 2.263000 38.046001 23.666460 # Ca LIG
359 186 2 0.000000 15.320000 15.431000 23.666460 # Ca LIG
360 186 3 0.000000 1.133000 37.848999 22.726460 # Cb LIG
361 186 3 0.000000 14.190000 15.234000 22.726460 # Cb LIG
362 186 4 0.000000 1.314000 37.462002 21.358459 # Cc LIG
363 186 4 0.000000 14.371000 14.847000 21.358459 # Cc LIG
364 186 5 0.000000 12.898000 15.451000 23.221460 # Cd LIG
365 186 5 0.000000 25.954000 38.066002 23.221460 # Cd LIG
366 186 6 0.000000 12.785000 15.751000 17.344460 # H LIG
367 186 6 0.000000 25.841999 38.366001 17.344460 # H LIG
368 186 2 0.000000 10.794000 14.722000 20.138460 # Ca LIG
369 186 2 0.000000 23.851000 37.337002 20.138460 # Ca LIG
370 186 3 0.000000 11.924000 14.919000 21.078461 # Cb LIG
371 186 3 0.000000 24.980000 37.534000 21.078461 # Cb LIG
372 186 4 0.000000 11.743000 15.306000 22.446461 # Cc LIG
373 186 4 0.000000 24.799000 37.921001 22.446461 # Cc LIG
374 186 5 0.000000 0.159000 37.317001 20.583460 # Cd LIG
375 186 5 0.000000 13.216000 14.702000 20.583460 # Cd LIG
376 186 6 0.000000 0.272000 37.016998 19.543461 # H LIG
377 186 6 0.000000 13.328000 14.402000 19.543461 # H LIG
378 186 9 0.000000 10.990000 14.322000 18.948460 # Ob LIG
379 186 9 0.000000 24.047001 36.937000 18.948460 # Ob LIG
380 186 10 0.000000 10.541000 15.535000 23.021460 # Oc LIG
381 186 10 0.000000 23.598000 38.150002 23.021460 # Oc LIG
382 186 9 0.000000 4.841000 5.182000 17.939461 # Ob LIG
383 186 9 0.000000 17.898001 27.797001 17.939461 # Ob LIG
384 186 10 0.000000 2.515000 7.080000 18.477459 # Oc LIG
385 186 10 0.000000 15.572000 29.695000 18.477459 # Oc LIG
386 186 2 0.000000 5.090000 5.552000 23.666460 # Ca LIG
387 186 2 0.000000 18.146000 28.167000 23.666460 # Ca LIG
388 186 3 0.000000 5.826000 4.672000 22.726460 # Cb LIG
389 186 3 0.000000 18.882000 27.287001 22.726460 # Cb LIG
390 186 4 0.000000 6.070000 5.022000 21.358459 # Cc LIG
391 186 4 0.000000 19.127001 27.636999 21.358459 # Cc LIG
392 186 5 0.000000 6.284000 3.444000 23.221460 # Cd LIG
393 186 5 0.000000 19.340000 26.059000 23.221460 # Cd LIG
394 186 6 0.000000 6.080000 3.197000 17.344460 # H LIG
395 186 6 0.000000 19.136999 25.812000 17.344460 # H LIG
396 186 2 0.000000 7.967000 1.987000 20.138460 # Ca LIG
397 186 2 0.000000 21.024000 24.601999 20.138460 # Ca LIG
398 186 3 0.000000 7.231000 2.866000 21.078461 # Cb LIG
399 186 3 0.000000 20.288000 25.481001 21.078461 # Cb LIG
400 186 4 0.000000 6.987000 2.516000 22.446461 # Cc LIG
401 186 4 0.000000 20.042999 25.131001 22.446461 # Cc LIG
402 186 5 0.000000 6.773000 4.094000 20.583460 # Cd LIG
403 186 5 0.000000 19.830000 26.709000 20.583460 # Cd LIG
404 186 6 0.000000 6.977000 4.341000 19.543461 # H LIG
405 186 6 0.000000 20.033001 26.955999 19.543461 # H LIG
406 186 9 0.000000 8.216000 2.357000 18.948460 # Ob LIG
407 186 9 0.000000 21.273001 24.972000 18.948460 # Ob LIG
408 186 2 0.000000 2.263000 7.893000 21.360460 # Ca LIG
409 186 2 0.000000 15.320000 30.507999 21.360460 # Ca LIG
410 186 3 0.000000 1.133000 7.696000 20.421459 # Cb LIG
411 186 3 0.000000 14.190000 30.311001 20.421459 # Cb LIG
412 186 4 0.000000 1.314000 7.309000 19.053459 # Cc LIG
413 186 4 0.000000 14.371000 29.924000 19.053459 # Cc LIG
414 186 5 0.000000 12.898000 30.528000 20.916460 # Cd LIG
415 186 5 0.000000 25.954000 7.913000 20.916460 # Cd LIG
416 186 6 0.000000 12.785000 30.827999 21.955460 # H LIG
417 186 6 0.000000 25.841999 8.213000 21.955460 # H LIG
418 186 9 0.000000 2.067000 8.293000 22.550461 # Ob LIG
419 186 9 0.000000 15.124000 30.908001 22.550461 # Ob LIG
420 186 3 0.000000 11.924000 29.996000 18.773460 # Cb LIG
421 186 3 0.000000 24.980000 7.381000 18.773460 # Cb LIG
422 186 4 0.000000 11.743000 30.382999 20.140461 # Cc LIG
423 186 4 0.000000 24.799000 7.768000 20.140461 # Cc LIG
424 186 5 0.000000 0.159000 7.164000 18.277460 # Cd LIG
425 186 5 0.000000 13.216000 29.778999 18.277460 # Cd LIG
426 186 2 0.000000 10.794000 29.799000 17.833460 # Ca LIG
427 186 2 0.000000 23.851000 7.184000 17.833460 # Ca LIG
428 186 9 0.000000 10.990000 29.398001 23.559460 # Ob LIG
429 186 9 0.000000 24.047001 6.783000 23.559460 # Ob LIG
430 186 2 0.000000 5.090000 20.628000 21.360460 # Ca LIG
431 186 2 0.000000 18.146000 43.243000 21.360460 # Ca LIG
432 186 3 0.000000 5.826000 19.749001 20.421459 # Cb LIG
433 186 3 0.000000 18.882000 42.363998 20.421459 # Cb LIG
434 186 4 0.000000 6.070000 20.099001 19.053459 # Cc LIG
435 186 4 0.000000 19.127001 42.714001 19.053459 # Cc LIG
436 186 5 0.000000 6.284000 18.521000 20.916460 # Cd LIG
437 186 5 0.000000 19.341000 41.136002 20.916460 # Cd LIG
438 186 6 0.000000 6.080000 18.274000 21.955460 # H LIG
439 186 6 0.000000 19.136999 40.889000 21.955460 # H LIG
440 186 9 0.000000 4.841000 20.257999 22.550461 # Ob LIG
441 186 9 0.000000 17.898001 42.873001 22.550461 # Ob LIG
442 186 3 0.000000 7.231000 17.943001 18.773460 # Cb LIG
443 186 3 0.000000 20.288000 40.557999 18.773460 # Cb LIG
444 186 4 0.000000 6.987000 17.593000 20.140461 # Cc LIG
445 186 4 0.000000 20.042999 40.208000 20.140461 # Cc LIG
446 186 5 0.000000 6.773000 19.171000 18.277460 # Cd LIG
447 186 5 0.000000 19.830000 41.785999 18.277460 # Cd LIG
448 186 2 0.000000 7.967000 17.063000 17.833460 # Ca LIG
449 186 2 0.000000 21.024000 39.678001 17.833460 # Ca LIG
450 186 9 0.000000 8.216000 17.433001 23.559460 # Ob LIG
451 186 9 0.000000 21.273001 40.048000 23.559460 # Ob LIG
452 186 9 0.000000 6.149000 24.216999 17.939461 # Ob LIG
453 186 9 0.000000 19.205999 1.602000 17.939461 # Ob LIG
454 186 8 0.000000 3.455000 22.708000 18.627460 # Oa LIG
455 186 8 0.000000 16.511000 0.093000 18.627460 # Oa LIG
456 186 10 0.000000 4.874000 24.434999 20.783461 # Oc LIG
457 186 10 0.000000 17.930000 1.820000 20.783461 # Oc LIG
458 186 2 0.000000 5.704000 24.247000 23.666460 # Ca LIG
459 186 2 0.000000 18.761000 1.632000 23.666460 # Ca LIG
460 186 3 0.000000 6.098000 25.323999 22.726460 # Cb LIG
461 186 3 0.000000 19.155001 2.709000 22.726460 # Cb LIG
462 186 4 0.000000 5.672000 25.361000 21.358459 # Cc LIG
463 186 4 0.000000 18.729000 2.746000 21.358459 # Cc LIG
464 186 5 0.000000 6.932000 26.334999 23.221460 # Cd LIG
465 186 5 0.000000 19.989000 3.720000 23.221460 # Cd LIG
466 186 6 0.000000 7.248000 26.282000 17.344460 # H LIG
467 186 6 0.000000 20.305000 3.667000 17.344460 # H LIG
468 186 8 0.000000 4.881000 23.346001 23.238461 # Oa LIG
469 186 8 0.000000 17.938000 0.731000 23.238461 # Oa LIG
470 186 2 0.000000 7.353000 28.521000 20.138460 # Ca LIG
471 186 2 0.000000 20.409000 5.906000 20.138460 # Ca LIG
472 186 3 0.000000 6.959000 27.444000 21.078461 # Cb LIG
473 186 3 0.000000 20.016001 4.829000 21.078461 # Cb LIG
474 186 4 0.000000 7.384000 27.407000 22.446461 # Cc LIG
475 186 4 0.000000 20.441000 4.792000 22.446461 # Cc LIG
476 186 5 0.000000 6.125000 26.434000 20.583460 # Cd LIG
477 186 5 0.000000 19.181000 3.819000 20.583460 # Cd LIG
478 186 6 0.000000 5.809000 26.486000 19.543461 # H LIG
479 186 6 0.000000 18.865999 3.871000 19.543461 # H LIG
480 186 9 0.000000 6.908000 28.552000 18.948460 # Ob LIG
481 186 9 0.000000 19.965000 5.937000 18.948460 # Ob LIG
482 186 8 0.000000 8.175000 29.422001 20.566460 # Oa LIG
483 186 8 0.000000 21.232000 6.807000 20.566460 # Oa LIG
484 186 10 0.000000 8.183000 28.333000 23.021460 # Oc LIG
485 186 10 0.000000 21.240000 5.718000 23.021460 # Oc LIG
486 186 2 0.000000 2.263000 22.969999 19.055460 # Ca LIG
487 186 2 0.000000 15.320000 0.355000 19.055460 # Ca LIG
488 186 3 0.000000 1.133000 22.771999 18.115459 # Cb LIG
489 186 3 0.000000 14.190000 0.157000 18.115459 # Cb LIG
490 186 5 0.000000 12.898000 0.374000 18.610460 # Cd LIG
491 186 5 0.000000 25.954000 22.989000 18.610460 # Cd LIG
492 186 6 0.000000 12.785000 0.674000 19.650459 # H LIG
493 186 6 0.000000 25.841999 23.289000 19.650459 # H LIG
494 186 9 0.000000 2.067000 23.370001 20.245461 # Ob LIG
495 186 9 0.000000 15.124000 0.755000 20.245461 # Ob LIG
496 186 10 0.000000 7.389000 31.514999 18.410460 # Oc LIG
497 186 10 0.000000 20.445999 8.900000 18.410460 # Oc LIG
498 186 6 0.000000 5.809000 41.563000 24.154461 # H LIG
499 186 6 0.000000 18.865999 18.948000 24.154461 # H LIG
500 186 10 0.000000 10.541000 0.459000 18.410460 # Oc LIG
501 186 10 0.000000 23.598000 23.073999 18.410460 # Oc LIG
502 186 4 0.000000 11.743000 0.230000 17.835461 # Cc LIG
503 186 4 0.000000 24.799999 22.844999 17.835461 # Cc LIG
504 186 4 0.000000 6.986000 32.669998 17.835461 # Cc LIG
505 186 4 0.000000 20.042999 10.055000 17.835461 # Cc LIG
506 186 6 0.000000 0.271000 6.864000 24.154461 # H LIG
507 186 6 0.000000 13.328000 29.479000 24.154461 # H LIG
508 186 6 0.000000 6.977000 19.417999 24.154461 # H LIG
509 186 6 0.000000 20.033001 42.033001 24.154461 # H LIG
510 186 7 0.000000 5.314000 7.966000 0.934500 # Mg LIG
511 186 7 0.000000 18.371000 30.580999 0.934500 # Mg LIG
512 186 7 0.000000 4.242000 6.491000 26.295460 # Mg LIG
513 186 7 0.000000 17.299000 29.106001 26.295460 # Mg LIG
514 186 7 0.000000 3.501000 8.158000 3.240500 # Mg LIG
515 186 7 0.000000 16.558001 30.773001 3.240500 # Mg LIG
516 186 7 0.000000 7.743000 14.649000 26.732460 # Mg LIG
517 186 7 0.000000 20.799000 37.264000 26.732460 # Mg LIG
518 186 7 0.000000 8.815000 16.124001 1.370500 # Mg LIG
519 186 7 0.000000 21.872000 38.738998 1.370500 # Mg LIG
520 186 7 0.000000 9.556000 14.457000 24.426460 # Mg LIG
521 186 7 0.000000 22.613001 37.071999 24.426460 # Mg LIG