LAMMPS data file. CGCMM style. atom_style full generated by VMD/TopoTools v1.5 on Sun Jun 11 11:09:30 PDT 2017
 1344 atoms
 232 bonds
 0 angles
 0 dihedrals
 0 impropers
 9 atom types
 1 bond types
 0 angle types
 0 dihedral types
 0 improper types
 5.211350 49.089348  xlo xhi
 5.467939 43.447985  ylo yhi
 -0.000999 27.670990  zlo zhi
 -21.936631 0.004831 -0.025099 xy xz yz

# Pair Coeffs
#
# 1  Ca
# 2  Cb
# 3  Cc
# 4  Cd
# 5  H
# 6  Oa
# 7  Ob
# 8  Oc
# 9  Zn

 Masses

 1 12.011000 # Ca
 2 12.011000 # Cb
 3 12.011000 # Cc
 4 12.011000 # Cd
 5 1.008000 # H
 6 15.999000 # Oa
 7 15.999000 # Ob
 8 15.999000 # Oc
 9 65.379997 # Zn

 Atoms

1 1 5 0.135033 28.932796 42.670296 22.706993 # H LIG
2 1 5 0.135033 34.088795 36.284298 18.227993 # H LIG
3 1 5 0.135033 34.057796 33.999298 24.187994 # H LIG
4 1 5 0.135033 32.834793 35.631294 20.394993 # H LIG
5 1 5 0.135033 15.805428 6.476252 21.862993 # H LIG
6 1 5 0.135033 35.762794 43.338295 22.827993 # H LIG
7 1 5 0.135033 36.987793 42.514297 18.095993 # H LIG
8 1 5 0.135033 26.868793 42.351295 19.553993 # H LIG
9 1 5 0.135033 28.832794 41.199295 20.517994 # H LIG
10 1 5 0.135033 47.948425 6.377252 18.798992 # H LIG
11 1 5 0.135033 37.841423 6.536252 17.341993 # H LIG
12 1 5 0.135033 39.804424 7.684252 23.292994 # H LIG
13 1 5 0.135033 45.092422 14.898251 19.656994 # H LIG
14 1 5 0.135033 39.908424 6.216252 21.105993 # H LIG
15 1 5 0.135033 45.119423 12.623251 18.688993 # H LIG
16 1 5 0.135033 46.727425 5.551252 20.984993 # H LIG
17 1 5 0.135033 26.769794 42.406296 21.950993 # H LIG
18 1 5 0.135033 43.772423 13.263252 23.415993 # H LIG
19 1 9 0.918944 32.384796 39.332298 18.427994 # Zn LIG
20 1 9 0.918944 34.000793 40.294296 23.038994 # Zn LIG
21 1 9 0.918944 32.355793 41.210297 20.734993 # Zn LIG
22 1 9 0.918944 43.326424 7.685252 23.075993 # Zn LIG
23 1 9 0.918944 43.352425 9.571253 18.466993 # Zn LIG
24 1 9 0.918944 44.969425 8.606253 20.770992 # Zn LIG
25 1 3 0.616091 33.501793 37.260300 23.325993 # Cc LIG
26 1 2 -0.169815 29.992794 41.678299 17.344994 # Cb LIG
27 1 4 -0.190923 28.874794 42.344299 23.745995 # Cd LIG
28 1 2 -0.169815 27.735794 42.614296 17.586994 # Cb LIG
29 1 4 -0.190923 33.782795 34.848297 23.557993 # Cd LIG
30 1 4 -0.190923 33.808796 36.122299 24.102993 # Cd LIG
31 1 1 1.051130 31.113796 41.419296 23.325993 # Ca LIG
32 1 3 0.616091 35.227795 42.302299 21.020992 # Cc LIG
33 1 2 -0.169815 33.158794 37.048298 21.954994 # Cb LIG
34 1 4 -0.190923 33.131794 35.742294 21.438993 # Cd LIG
35 1 2 -0.169815 33.448795 34.623299 22.205994 # Cb LIG
36 1 4 -0.190923 15.220427 5.795252 21.241993 # Cd LIG
37 1 4 -0.190923 36.047794 43.158295 21.788994 # Cd LIG
38 1 1 1.051130 32.828796 38.146294 21.015993 # Ca LIG
39 1 3 0.616091 29.998795 41.262299 18.712994 # Cc LIG
40 1 2 -0.169815 35.589794 42.100296 19.652992 # Cb LIG
41 1 4 -0.190923 36.735794 42.728294 19.134995 # Cd LIG
42 1 2 -0.169815 15.595427 5.597251 19.895992 # Cb LIG
43 1 4 -0.190923 27.751797 42.189301 18.932993 # Cd LIG
44 1 4 -0.190923 28.846794 41.537300 19.479994 # Cd LIG
45 1 1 1.051130 34.804794 41.264297 18.713993 # Ca LIG
46 1 3 0.616091 40.971424 7.631252 18.178993 # Cc LIG
47 1 2 -0.169815 46.556423 6.791252 24.158993 # Cb LIG
48 1 4 -0.190923 47.696423 6.165252 17.759995 # Cd LIG
49 1 2 -0.169815 26.560795 43.287300 23.917994 # Cb LIG
50 1 4 -0.190923 38.725426 6.699252 17.961994 # Cd LIG
51 1 4 -0.190923 39.818424 7.353252 17.412994 # Cd LIG
52 1 1 1.051130 45.773426 7.638252 18.177994 # Ca LIG
53 1 3 0.616091 44.478424 11.638252 20.489994 # Cc LIG
54 1 2 -0.169815 40.966423 7.217252 19.546993 # Cb LIG
55 1 4 -0.190923 39.848423 6.542252 20.065994 # Cd LIG
56 1 2 -0.169815 38.711426 6.275252 19.307993 # Cb LIG
57 1 4 -0.190923 44.790424 14.050251 20.274994 # Cd LIG
58 1 4 -0.190923 44.815426 12.777252 19.725994 # Cd LIG
59 1 1 1.051130 42.085426 7.475252 20.483994 # Ca LIG
60 1 3 0.616091 46.195423 6.591252 22.790993 # Cc LIG
61 1 2 -0.169815 44.119423 11.849253 21.857994 # Cb LIG
62 1 4 -0.190923 44.087425 13.154251 22.376993 # Cd LIG
63 1 2 -0.169815 44.422424 14.274252 21.618994 # Cb LIG
64 1 4 -0.190923 26.186794 43.090294 22.571993 # Cd LIG
65 1 4 -0.190923 47.011425 5.731252 22.022993 # Cd LIG
66 1 1 1.051130 43.787426 10.749252 22.794994 # Ca LIG
67 1 8 -0.683695 45.116425 7.152252 22.198994 # Oc LIG
68 1 6 -0.688200 43.907425 9.535252 22.380993 # Oa LIG
69 1 7 -0.706966 46.193424 7.819252 19.371994 # Ob LIG
70 1 8 -0.683695 44.538425 10.424252 19.896994 # Oc LIG
71 1 6 -0.688200 43.077423 8.186253 20.072994 # Oa LIG
72 1 7 -0.706966 43.420425 11.021252 23.987993 # Ob LIG
73 1 8 -0.683695 41.994423 8.288252 17.587994 # Oc LIG
74 1 6 -0.688200 44.662426 8.145252 17.765993 # Oa LIG
75 1 7 -0.706966 42.033424 7.018252 21.676994 # Ob LIG
76 1 8 -0.683695 31.024796 40.608299 19.304993 # Oc LIG
77 1 6 -0.688200 33.691795 40.762299 19.124992 # Oa LIG
78 1 7 -0.706966 31.058796 41.873299 22.131992 # Ob LIG
79 1 8 -0.683695 33.565796 38.477295 23.913994 # Oc LIG
80 1 6 -0.688200 32.110794 40.714294 23.737993 # Oa LIG
81 1 7 -0.706966 32.465794 37.873299 19.821993 # Ob LIG
82 1 8 -0.683695 34.145794 41.747299 21.611994 # Oc LIG
83 1 6 -0.688200 32.941795 39.361298 21.429993 # Oa LIG
84 1 7 -0.706966 35.225796 41.082298 17.520992 # Ob LIG
85 1 5 0.135033 28.929173 42.697487 1.953002 # H LIG
86 1 5 0.135033 34.090004 36.286392 25.145990 # H LIG
87 1 5 0.135033 34.054173 34.026489 3.434002 # H LIG
88 1 5 0.135033 32.836002 35.633392 27.312990 # H LIG
89 1 5 0.135033 15.801805 6.503443 1.109001 # H LIG
90 1 5 0.135033 35.759171 43.365486 2.074002 # H LIG
91 1 5 0.135033 36.989002 42.516388 25.013990 # H LIG
92 1 5 0.135033 26.870003 42.353386 26.471991 # H LIG
93 1 5 0.135033 28.834003 41.201393 27.435991 # H LIG
94 1 5 0.135033 47.949631 6.379344 25.716991 # H LIG
95 1 5 0.135033 37.842632 6.538344 24.259991 # H LIG
96 1 5 0.135033 39.800800 7.711443 2.539002 # H LIG
97 1 5 0.135033 45.093632 14.900343 26.574991 # H LIG
98 1 5 0.135033 39.904800 6.243443 0.352002 # H LIG
99 1 5 0.135033 45.120632 12.625343 25.606991 # H LIG
100 1 5 0.135033 46.723801 5.578443 0.231002 # H LIG
101 1 5 0.135033 26.766171 42.433487 1.197002 # H LIG
102 1 5 0.135033 43.768803 13.290443 2.662001 # H LIG
103 1 9 0.918944 32.386002 39.334389 25.345991 # Zn LIG
104 1 9 0.918944 33.997173 40.321487 2.285002 # Zn LIG
105 1 9 0.918944 32.357002 41.212387 27.652990 # Zn LIG
106 1 9 0.918944 43.322800 7.712442 2.322002 # Zn LIG
107 1 9 0.918944 43.353634 9.573345 25.384991 # Zn LIG
108 1 9 0.918944 44.965801 8.633443 0.017002 # Zn LIG
109 1 3 0.616091 33.498173 37.287491 2.572002 # Cc LIG
110 1 2 -0.169815 29.994003 41.680389 24.262991 # Cb LIG
111 1 4 -0.190923 28.871174 42.371490 2.992002 # Cd LIG
112 1 2 -0.169815 27.737003 42.616386 24.504992 # Cb LIG
113 1 4 -0.190923 33.779171 34.875488 2.804002 # Cd LIG
114 1 4 -0.190923 33.805172 36.149490 3.349002 # Cd LIG
115 1 1 1.051130 31.110172 41.446487 2.572002 # Ca LIG
116 1 3 0.616091 35.224171 42.329491 0.267002 # Cc LIG
117 1 2 -0.169815 33.155170 37.075485 1.201001 # Cb LIG
118 1 4 -0.190923 33.128170 35.769485 0.685002 # Cd LIG
119 1 2 -0.169815 33.445171 34.650490 1.452001 # Cb LIG
120 1 4 -0.190923 15.216805 5.822443 0.488002 # Cd LIG
121 1 4 -0.190923 36.044170 43.185486 1.035002 # Cd LIG
122 1 1 1.051130 32.825172 38.173485 0.262002 # Ca LIG
123 1 3 0.616091 30.000004 41.264389 25.630991 # Cc LIG
124 1 2 -0.169815 35.591003 42.102386 26.570992 # Cb LIG
125 1 4 -0.190923 36.737003 42.730392 26.052992 # Cd LIG
126 1 2 -0.169815 15.596635 5.599344 26.813992 # Cb LIG
127 1 4 -0.190923 27.753002 42.191391 25.850990 # Cd LIG
128 1 4 -0.190923 28.848003 41.539391 26.397991 # Cd LIG
129 1 1 1.051130 34.806004 41.266388 25.631990 # Ca LIG
130 1 3 0.616091 40.972633 7.633344 25.096991 # Cc LIG
131 1 2 -0.169815 46.552803 6.818442 3.405001 # Cb LIG
132 1 4 -0.190923 47.697632 6.167345 24.677990 # Cd LIG
133 1 2 -0.169815 26.557171 43.314484 3.164002 # Cb LIG
134 1 4 -0.190923 38.726631 6.701344 24.879992 # Cd LIG
135 1 4 -0.190923 39.819633 7.355344 24.330992 # Cd LIG
136 1 1 1.051130 45.774632 7.640344 25.095991 # Ca LIG
137 1 3 0.616091 44.479633 11.640345 27.407991 # Cc LIG
138 1 2 -0.169815 40.967632 7.219345 26.464991 # Cb LIG
139 1 4 -0.190923 39.849632 6.544344 26.983992 # Cd LIG
140 1 2 -0.169815 38.712631 6.277344 26.225990 # Cb LIG
141 1 4 -0.190923 44.791634 14.052343 27.192991 # Cd LIG
142 1 4 -0.190923 44.816631 12.779345 26.643991 # Cd LIG
143 1 1 1.051130 42.086632 7.477344 27.401991 # Ca LIG
144 1 3 0.616091 46.191803 6.618443 2.037001 # Cc LIG
145 1 2 -0.169815 44.115803 11.876443 1.104002 # Cb LIG
146 1 4 -0.190923 44.083801 13.181442 1.623001 # Cd LIG
147 1 2 -0.169815 44.418800 14.301443 0.865001 # Cb LIG
148 1 4 -0.190923 26.183170 43.117485 1.818002 # Cd LIG
149 1 4 -0.190923 47.007801 5.758443 1.269002 # Cd LIG
150 1 1 1.051130 43.783802 10.776443 2.041002 # Ca LIG
151 1 8 -0.683695 45.112801 7.179442 1.445001 # Oc LIG
152 1 6 -0.688200 43.903801 9.562443 1.627002 # Oa LIG
153 1 7 -0.706966 46.194633 7.821344 26.289991 # Ob LIG
154 1 8 -0.683695 44.539631 10.426344 26.814991 # Oc LIG
155 1 6 -0.688200 43.078632 8.188345 26.990992 # Oa LIG
156 1 7 -0.706966 43.416801 11.048443 3.234001 # Ob LIG
157 1 8 -0.683695 41.995632 8.290344 24.505991 # Oc LIG
158 1 6 -0.688200 44.663631 8.147345 24.683990 # Oa LIG
159 1 7 -0.706966 42.029800 7.045443 0.923002 # Ob LIG
160 1 8 -0.683695 31.026005 40.610390 26.222992 # Oc LIG
161 1 6 -0.688200 33.693005 40.764389 26.042992 # Oa LIG
162 1 7 -0.706966 31.055172 41.900490 1.378001 # Ob LIG
163 1 8 -0.683695 33.562172 38.504486 3.160002 # Oc LIG
164 1 6 -0.688200 32.107170 40.741486 2.984001 # Oa LIG
165 1 7 -0.706966 32.467003 37.875389 26.739990 # Ob LIG
166 1 8 -0.683695 34.142170 41.774490 0.858001 # Oc LIG
167 1 6 -0.688200 32.938171 39.388489 0.676002 # Oa LIG
168 1 7 -0.706966 35.227001 41.084389 24.438992 # Ob LIG
169 1 5 0.135033 28.930378 42.699577 8.870998 # H LIG
170 1 5 0.135033 34.086380 36.313583 4.391998 # H LIG
171 1 5 0.135033 34.055382 34.028580 10.351998 # H LIG
172 1 5 0.135033 32.832378 35.660580 6.558998 # H LIG
173 1 5 0.135033 15.803012 6.505535 8.026999 # H LIG
174 1 5 0.135033 35.760380 43.367577 8.991999 # H LIG
175 1 5 0.135033 36.985378 42.543579 4.259998 # H LIG
176 1 5 0.135033 26.866379 42.380577 5.717999 # H LIG
177 1 5 0.135033 28.830379 41.228577 6.681998 # H LIG
178 1 5 0.135033 47.946011 6.406535 4.962998 # H LIG
179 1 5 0.135033 37.839008 6.565535 3.505998 # H LIG
180 1 5 0.135033 39.802010 7.713535 9.456999 # H LIG
181 1 5 0.135033 45.090008 14.927534 5.820998 # H LIG
182 1 5 0.135033 39.906010 6.245535 7.269999 # H LIG
183 1 5 0.135033 45.117008 12.652534 4.852999 # H LIG
184 1 5 0.135033 46.725010 5.580535 7.148998 # H LIG
185 1 5 0.135033 26.767380 42.435577 8.114999 # H LIG
186 1 5 0.135033 43.770008 13.292536 9.579998 # H LIG
187 1 9 0.918944 32.382381 39.361580 4.591999 # Zn LIG
188 1 9 0.918944 33.998379 40.323578 9.202998 # Zn LIG
189 1 9 0.918944 32.353378 41.239578 6.898998 # Zn LIG
190 1 9 0.918944 43.324009 7.714535 9.239999 # Zn LIG
191 1 9 0.918944 43.350010 9.600535 4.630999 # Zn LIG
192 1 9 0.918944 44.967010 8.635535 6.934999 # Zn LIG
193 1 3 0.616091 33.499378 37.289581 9.489999 # Cc LIG
194 1 2 -0.169815 29.990379 41.707581 3.508998 # Cb LIG
195 1 4 -0.190923 28.872379 42.373581 9.909999 # Cd LIG
196 1 2 -0.169815 27.733379 42.643578 3.750998 # Cb LIG
197 1 4 -0.190923 33.780380 34.877579 9.721998 # Cd LIG
198 1 4 -0.190923 33.806381 36.151581 10.266998 # Cd LIG
199 1 1 1.051130 31.111382 41.448578 9.489999 # Ca LIG
200 1 3 0.616091 35.225380 42.331581 7.184999 # Cc LIG
201 1 2 -0.169815 33.156380 37.077583 8.118999 # Cb LIG
202 1 4 -0.190923 33.129379 35.771580 7.602999 # Cd LIG
203 1 2 -0.169815 33.446381 34.652580 8.369998 # Cb LIG
204 1 4 -0.190923 15.218013 5.824535 7.405998 # Cd LIG
205 1 4 -0.190923 36.045380 43.187576 7.952998 # Cd LIG
206 1 1 1.051130 32.826382 38.175583 7.179998 # Ca LIG
207 1 3 0.616091 29.996380 41.291580 4.876998 # Cc LIG
208 1 2 -0.169815 35.587379 42.129578 5.816998 # Cb LIG
209 1 4 -0.190923 36.733379 42.757576 5.298998 # Cd LIG
210 1 2 -0.169815 15.593013 5.626534 6.059999 # Cb LIG
211 1 4 -0.190923 27.749378 42.218582 5.096998 # Cd LIG
212 1 4 -0.190923 28.844379 41.566582 5.643998 # Cd LIG
213 1 1 1.051130 34.802380 41.293579 4.877998 # Ca LIG
214 1 3 0.616091 40.969009 7.660535 4.342999 # Cc LIG
215 1 2 -0.169815 46.554008 6.820535 10.322998 # Cb LIG
216 1 4 -0.190923 47.694008 6.194535 3.923998 # Cd LIG
217 1 2 -0.169815 26.558380 43.316582 10.081999 # Cb LIG
218 1 4 -0.190923 38.723007 6.728535 4.125998 # Cd LIG
219 1 4 -0.190923 39.816010 7.382535 3.576998 # Cd LIG
220 1 1 1.051130 45.771011 7.667535 4.341999 # Ca LIG
221 1 3 0.616091 44.476009 11.667535 6.653998 # Cc LIG
222 1 2 -0.169815 40.964008 7.246535 5.710999 # Cb LIG
223 1 4 -0.190923 39.846008 6.571535 6.229999 # Cd LIG
224 1 2 -0.169815 38.709007 6.304535 5.471998 # Cb LIG
225 1 4 -0.190923 44.788010 14.079535 6.438998 # Cd LIG
226 1 4 -0.190923 44.813011 12.806536 5.889998 # Cd LIG
227 1 1 1.051130 42.083008 7.504535 6.647998 # Ca LIG
228 1 3 0.616091 46.193008 6.620535 8.954998 # Cc LIG
229 1 2 -0.169815 44.117008 11.878535 8.021998 # Cb LIG
230 1 4 -0.190923 44.085011 13.183535 8.540998 # Cd LIG
231 1 2 -0.169815 44.420010 14.303535 7.782998 # Cb LIG
232 1 4 -0.190923 26.184380 43.119583 8.735998 # Cd LIG
233 1 4 -0.190923 47.009010 5.760535 8.186998 # Cd LIG
234 1 1 1.051130 43.785011 10.778535 8.958999 # Ca LIG
235 1 8 -0.683695 45.114010 7.181535 8.362998 # Oc LIG
236 1 6 -0.688200 43.905010 9.564535 8.544998 # Oa LIG
237 1 7 -0.706966 46.191010 7.848535 5.535998 # Ob LIG
238 1 8 -0.683695 44.536011 10.453535 6.060998 # Oc LIG
239 1 6 -0.688200 43.075008 8.215535 6.236999 # Oa LIG
240 1 7 -0.706966 43.418011 11.050535 10.151999 # Ob LIG
241 1 8 -0.683695 41.992008 8.317535 3.751998 # Oc LIG
242 1 6 -0.688200 44.660011 8.174535 3.929998 # Oa LIG
243 1 7 -0.706966 42.031010 7.047535 7.840999 # Ob LIG
244 1 8 -0.683695 31.022381 40.637581 5.468998 # Oc LIG
245 1 6 -0.688200 33.689381 40.791580 5.288999 # Oa LIG
246 1 7 -0.706966 31.056381 41.902580 8.295999 # Ob LIG
247 1 8 -0.683695 33.563381 38.506577 10.077998 # Oc LIG
248 1 6 -0.688200 32.108379 40.743584 9.901999 # Oa LIG
249 1 7 -0.706966 32.463379 37.902580 5.985998 # Ob LIG
250 1 8 -0.683695 34.143379 41.776581 7.775998 # Oc LIG
251 1 6 -0.688200 32.939381 39.390579 7.593999 # Oa LIG
252 1 7 -0.706966 35.223381 41.111580 3.684999 # Ob LIG
253 1 5 0.135033 28.931587 42.701675 15.788996 # H LIG
254 1 5 0.135033 34.087589 36.315674 11.309996 # H LIG
255 1 5 0.135033 34.056587 34.030670 17.269997 # H LIG
256 1 5 0.135033 32.833588 35.662674 13.476995 # H LIG
257 1 5 0.135033 15.804219 6.507627 14.944996 # H LIG
258 1 5 0.135033 35.761589 43.369675 15.909996 # H LIG
259 1 5 0.135033 36.986588 42.545670 11.177996 # H LIG
260 1 5 0.135033 26.867588 42.382675 12.635996 # H LIG
261 1 5 0.135033 28.831589 41.230675 13.599997 # H LIG
262 1 5 0.135033 47.947216 6.408628 11.880996 # H LIG
263 1 5 0.135033 37.840218 6.567627 10.423996 # H LIG
264 1 5 0.135033 39.803215 7.715628 16.374996 # H LIG
265 1 5 0.135033 45.091217 14.929626 12.738997 # H LIG
266 1 5 0.135033 39.907219 6.247627 14.187996 # H LIG
267 1 5 0.135033 45.118217 12.654627 11.770996 # H LIG
268 1 5 0.135033 46.726215 5.582627 14.066996 # H LIG
269 1 5 0.135033 26.768589 42.437675 15.032996 # H LIG
270 1 5 0.135033 43.771217 13.294628 16.497995 # H LIG
271 1 9 0.918944 32.383587 39.363670 11.509996 # Zn LIG
272 1 9 0.918944 33.999588 40.325676 16.120996 # Zn LIG
273 1 9 0.918944 32.354588 41.241669 13.816996 # Zn LIG
274 1 9 0.918944 43.325218 7.716627 16.157997 # Zn LIG
275 1 9 0.918944 43.351215 9.602628 11.548996 # Zn LIG
276 1 9 0.918944 44.968216 8.637628 13.852996 # Zn LIG
277 1 3 0.616091 33.500587 37.291672 16.407997 # Cc LIG
278 1 2 -0.169815 29.991589 41.709671 10.426996 # Cb LIG
279 1 4 -0.190923 28.873589 42.375671 16.827995 # Cd LIG
280 1 2 -0.169815 27.734589 42.645676 10.668996 # Cb LIG
281 1 4 -0.190923 33.781586 34.879673 16.639996 # Cd LIG
282 1 4 -0.190923 33.807587 36.153671 17.184996 # Cd LIG
283 1 1 1.051130 31.112587 41.450676 16.407997 # Ca LIG
284 1 3 0.616091 35.226589 42.333672 14.102996 # Cc LIG
285 1 2 -0.169815 33.157589 37.079674 15.036996 # Cb LIG
286 1 4 -0.190923 33.130589 35.773674 14.520996 # Cd LIG
287 1 2 -0.169815 33.447586 34.654671 15.287996 # Cb LIG
288 1 4 -0.190923 15.219220 5.826628 14.323996 # Cd LIG
289 1 4 -0.190923 36.046589 43.189674 14.870996 # Cd LIG
290 1 1 1.051130 32.827587 38.177673 14.097996 # Ca LIG
291 1 3 0.616091 29.997589 41.293671 11.794996 # Cc LIG
292 1 2 -0.169815 35.588589 42.131676 12.734996 # Cb LIG
293 1 4 -0.190923 36.734589 42.759674 12.216996 # Cd LIG
294 1 2 -0.169815 15.594220 5.628627 12.977996 # Cb LIG
295 1 4 -0.190923 27.750587 42.220673 12.014996 # Cd LIG
296 1 4 -0.190923 28.845589 41.568672 12.561996 # Cd LIG
297 1 1 1.051130 34.803589 41.295670 11.795996 # Ca LIG
298 1 3 0.616091 40.970215 7.662627 11.260996 # Cc LIG
299 1 2 -0.169815 46.555218 6.822627 17.240995 # Cb LIG
300 1 4 -0.190923 47.695217 6.196628 10.841996 # Cd LIG
301 1 2 -0.169815 26.559586 43.318672 16.999996 # Cb LIG
302 1 4 -0.190923 38.724216 6.730627 11.043996 # Cd LIG
303 1 4 -0.190923 39.817215 7.384627 10.494996 # Cd LIG
304 1 1 1.051130 45.772217 7.669627 11.259996 # Ca LIG
305 1 3 0.616091 44.477219 11.669627 13.571996 # Cc LIG
306 1 2 -0.169815 40.965218 7.248628 12.628996 # Cb LIG
307 1 4 -0.190923 39.847218 6.573627 13.147996 # Cd LIG
308 1 2 -0.169815 38.710217 6.306627 12.389996 # Cb LIG
309 1 4 -0.190923 44.789215 14.081627 13.356997 # Cd LIG
310 1 4 -0.190923 44.814217 12.808628 12.807996 # Cd LIG
311 1 1 1.051130 42.084217 7.506627 13.565996 # Ca LIG
312 1 3 0.616091 46.194218 6.622627 15.872995 # Cc LIG
313 1 2 -0.169815 44.118217 11.880628 14.939997 # Cb LIG
314 1 4 -0.190923 44.086216 13.185627 15.458996 # Cd LIG
315 1 2 -0.169815 44.421215 14.305628 14.700996 # Cb LIG
316 1 4 -0.190923 26.185589 43.121674 15.653996 # Cd LIG
317 1 4 -0.190923 47.010216 5.762628 15.104996 # Cd LIG
318 1 1 1.051130 43.786217 10.780627 15.876996 # Ca LIG
319 1 8 -0.683695 45.115215 7.183627 15.280996 # Oc LIG
320 1 6 -0.688200 43.906216 9.566628 15.462996 # Oa LIG
321 1 7 -0.706966 46.192215 7.850627 12.453996 # Ob LIG
322 1 8 -0.683695 44.537216 10.455627 12.978996 # Oc LIG
323 1 6 -0.688200 43.076218 8.217628 13.154996 # Oa LIG
324 1 7 -0.706966 43.419216 11.052628 17.069996 # Ob LIG
325 1 8 -0.683695 41.993217 8.319628 10.669996 # Oc LIG
326 1 6 -0.688200 44.661217 8.176627 10.847996 # Oa LIG
327 1 7 -0.706966 42.032215 7.049627 14.758996 # Ob LIG
328 1 8 -0.683695 31.023586 40.639671 12.386996 # Oc LIG
329 1 6 -0.688200 33.690586 40.793671 12.206996 # Oa LIG
330 1 7 -0.706966 31.057587 41.904671 15.213996 # Ob LIG
331 1 8 -0.683695 33.564587 38.508675 16.995996 # Oc LIG
332 1 6 -0.688200 32.109589 40.745674 16.819996 # Oa LIG
333 1 7 -0.706966 32.464588 37.904671 12.903996 # Ob LIG
334 1 8 -0.683695 34.144588 41.778671 14.693996 # Oc LIG
335 1 6 -0.688200 32.940586 39.392670 14.511996 # Oa LIG
336 1 7 -0.706966 35.224586 41.113670 10.602996 # Ob LIG
337 1 5 0.135033 39.901108 23.680275 22.706993 # H LIG
338 1 5 0.135033 45.057110 17.294273 18.227993 # H LIG
339 1 5 0.135033 45.026108 15.009274 24.187994 # H LIG
340 1 5 0.135033 43.803108 16.641273 20.394993 # H LIG
341 1 5 0.135033 48.715111 25.466274 21.862993 # H LIG
342 1 5 0.135033 46.731110 24.348274 22.827993 # H LIG
343 1 5 0.135033 47.956108 23.524273 18.095993 # H LIG
344 1 5 0.135033 37.837109 23.361275 19.553993 # H LIG
345 1 5 0.135033 39.801109 22.209274 20.517994 # H LIG
346 1 5 0.135033 36.980110 25.367275 18.798992 # H LIG
347 1 5 0.135033 26.873112 25.526274 17.341993 # H LIG
348 1 5 0.135033 28.836109 26.674274 23.292994 # H LIG
349 1 5 0.135033 34.124107 33.888275 19.656994 # H LIG
350 1 5 0.135033 28.940109 25.206274 21.105993 # H LIG
351 1 5 0.135033 34.151108 31.613274 18.688993 # H LIG
352 1 5 0.135033 35.759109 24.541275 20.984993 # H LIG
353 1 5 0.135033 37.738110 23.416275 21.950993 # H LIG
354 1 5 0.135033 32.804111 32.253273 23.415993 # H LIG
355 1 9 0.918944 43.353107 20.342274 18.427994 # Zn LIG
356 1 9 0.918944 44.969109 21.304274 23.038994 # Zn LIG
357 1 9 0.918944 43.324108 22.220274 20.734993 # Zn LIG
358 1 9 0.918944 32.358109 26.675274 23.075993 # Zn LIG
359 1 9 0.918944 32.384109 28.561275 18.466993 # Zn LIG
360 1 9 0.918944 34.001110 27.596275 20.770992 # Zn LIG
361 1 3 0.616091 44.470108 18.270275 23.325993 # Cc LIG
362 1 2 -0.169815 40.961109 22.688274 17.344994 # Cb LIG
363 1 4 -0.190923 39.843109 23.354275 23.745995 # Cd LIG
364 1 2 -0.169815 38.704109 23.624275 17.586994 # Cb LIG
365 1 4 -0.190923 44.751110 15.858274 23.557993 # Cd LIG
366 1 4 -0.190923 44.777107 17.132275 24.102993 # Cd LIG
367 1 1 1.051130 42.082108 22.429274 23.325993 # Ca LIG
368 1 3 0.616091 46.196110 23.312275 21.020992 # Cc LIG
369 1 2 -0.169815 44.127110 18.058273 21.954994 # Cb LIG
370 1 4 -0.190923 44.100109 16.752274 21.438993 # Cd LIG
371 1 2 -0.169815 44.417110 15.633274 22.205994 # Cb LIG
372 1 4 -0.190923 48.130108 24.785275 21.241993 # Cd LIG
373 1 4 -0.190923 47.016109 24.168274 21.788994 # Cd LIG
374 1 1 1.051130 43.797108 19.156273 21.015993 # Ca LIG
375 1 3 0.616091 40.967110 22.272274 18.712994 # Cc LIG
376 1 2 -0.169815 46.558109 23.110275 19.652992 # Cb LIG
377 1 4 -0.190923 47.704109 23.738274 19.134995 # Cd LIG
378 1 2 -0.169815 48.505108 24.587273 19.895992 # Cb LIG
379 1 4 -0.190923 38.720108 23.199274 18.932993 # Cd LIG
380 1 4 -0.190923 39.815109 22.547274 19.479994 # Cd LIG
381 1 1 1.051130 45.773109 22.274273 18.713993 # Ca LIG
382 1 3 0.616091 30.003109 26.621273 18.178993 # Cc LIG
383 1 2 -0.169815 35.588108 25.781273 24.158993 # Cb LIG
384 1 4 -0.190923 36.728107 25.155273 17.759995 # Cd LIG
385 1 2 -0.169815 37.529110 24.297274 23.917994 # Cb LIG
386 1 4 -0.190923 27.757111 25.689274 17.961994 # Cd LIG
387 1 4 -0.190923 28.850109 26.343273 17.412994 # Cd LIG
388 1 1 1.051130 34.805107 26.628273 18.177994 # Ca LIG
389 1 3 0.616091 33.510109 30.628273 20.489994 # Cc LIG
390 1 2 -0.169815 29.998112 26.207275 19.546993 # Cb LIG
391 1 4 -0.190923 28.880112 25.532274 20.065994 # Cd LIG
392 1 2 -0.169815 27.743111 25.265274 19.307993 # Cb LIG
393 1 4 -0.190923 33.822109 33.040276 20.274994 # Cd LIG
394 1 4 -0.190923 33.847111 31.767275 19.725994 # Cd LIG
395 1 1 1.051130 31.117111 26.465275 20.483994 # Ca LIG
396 1 3 0.616091 35.227108 25.581274 22.790993 # Cc LIG
397 1 2 -0.169815 33.151112 30.839275 21.857994 # Cb LIG
398 1 4 -0.190923 33.119110 32.144272 22.376993 # Cd LIG
399 1 2 -0.169815 33.454109 33.264275 21.618994 # Cb LIG
400 1 4 -0.190923 37.155109 24.100273 22.571993 # Cd LIG
401 1 4 -0.190923 36.043110 24.721275 22.022993 # Cd LIG
402 1 1 1.051130 32.819111 29.739273 22.794994 # Ca LIG
403 1 8 -0.683695 34.148109 26.142273 22.198994 # Oc LIG
404 1 6 -0.688200 32.939110 28.525274 22.380993 # Oa LIG
405 1 7 -0.706966 35.225109 26.809273 19.371994 # Ob LIG
406 1 8 -0.683695 33.570110 29.414274 19.896994 # Oc LIG
407 1 6 -0.688200 32.109112 27.176273 20.072994 # Oa LIG
408 1 7 -0.706966 32.452110 30.011274 23.987993 # Ob LIG
409 1 8 -0.683695 31.026112 27.278275 17.587994 # Oc LIG
410 1 6 -0.688200 33.694107 27.135273 17.765993 # Oa LIG
411 1 7 -0.706966 31.065109 26.008274 21.676994 # Ob LIG
412 1 8 -0.683695 41.993111 21.618275 19.304993 # Oc LIG
413 1 6 -0.688200 44.660110 21.772274 19.124992 # Oa LIG
414 1 7 -0.706966 42.027107 22.883274 22.131992 # Ob LIG
415 1 8 -0.683695 44.534107 19.487274 23.913994 # Oc LIG
416 1 6 -0.688200 43.079109 21.724274 23.737993 # Oa LIG
417 1 7 -0.706966 43.434109 18.883274 19.821993 # Ob LIG
418 1 8 -0.683695 45.114109 22.757275 21.611994 # Oc LIG
419 1 6 -0.688200 43.910110 20.371273 21.429993 # Oa LIG
420 1 7 -0.706966 46.194107 22.092274 17.520992 # Ob LIG
421 1 5 0.135033 39.897484 23.707464 1.953002 # H LIG
422 1 5 0.135033 45.058315 17.296368 25.145990 # H LIG
423 1 5 0.135033 45.022484 15.036466 3.434002 # H LIG
424 1 5 0.135033 43.804317 16.643368 27.312990 # H LIG
425 1 5 0.135033 48.711487 25.493465 1.109001 # H LIG
426 1 5 0.135033 46.727486 24.375465 2.074002 # H LIG
427 1 5 0.135033 47.957317 23.526367 25.013990 # H LIG
428 1 5 0.135033 37.838318 23.363365 26.471991 # H LIG
429 1 5 0.135033 39.802315 22.211367 27.435991 # H LIG
430 1 5 0.135033 36.981316 25.369366 25.716991 # H LIG
431 1 5 0.135033 26.874317 25.528366 24.259991 # H LIG
432 1 5 0.135033 28.832485 26.701466 2.539002 # H LIG
433 1 5 0.135033 34.125317 33.890366 26.574991 # H LIG
434 1 5 0.135033 28.936485 25.233465 0.352002 # H LIG
435 1 5 0.135033 34.152317 31.615366 25.606991 # H LIG
436 1 5 0.135033 35.755486 24.568464 0.231002 # H LIG
437 1 5 0.135033 37.734486 23.443464 1.197002 # H LIG
438 1 5 0.135033 32.800488 32.280464 2.662001 # H LIG
439 1 9 0.918944 43.354317 20.344366 25.345991 # Zn LIG
440 1 9 0.918944 44.965485 21.331465 2.285002 # Zn LIG
441 1 9 0.918944 43.325317 22.222366 27.652990 # Zn LIG
442 1 9 0.918944 32.354485 26.702465 2.322002 # Zn LIG
443 1 9 0.918944 32.385319 28.563366 25.384991 # Zn LIG
444 1 9 0.918944 33.997486 27.623465 0.017002 # Zn LIG
445 1 3 0.616091 44.466484 18.297466 2.572002 # Cc LIG
446 1 2 -0.169815 40.962315 22.690367 24.262991 # Cb LIG
447 1 4 -0.190923 39.839485 23.381464 2.992002 # Cd LIG
448 1 2 -0.169815 38.705315 23.626366 24.504992 # Cb LIG
449 1 4 -0.190923 44.747486 15.885466 2.804002 # Cd LIG
450 1 4 -0.190923 44.773483 17.159466 3.349002 # Cd LIG
451 1 1 1.051130 42.078484 22.456465 2.572002 # Ca LIG
452 1 3 0.616091 46.192486 23.339464 0.267002 # Cc LIG
453 1 2 -0.169815 44.123486 18.085464 1.201001 # Cb LIG
454 1 4 -0.190923 44.096485 16.779465 0.685002 # Cd LIG
455 1 2 -0.169815 44.413486 15.660465 1.452001 # Cb LIG
456 1 4 -0.190923 48.126488 24.812466 0.488002 # Cd LIG
457 1 4 -0.190923 47.012486 24.195465 1.035002 # Cd LIG
458 1 1 1.051130 43.793488 19.183464 0.262002 # Ca LIG
459 1 3 0.616091 40.968315 22.274366 25.630991 # Cc LIG
460 1 2 -0.169815 46.559315 23.112366 26.570992 # Cb LIG
461 1 4 -0.190923 47.705315 23.740366 26.052992 # Cd LIG
462 1 2 -0.169815 48.506317 24.589367 26.813992 # Cb LIG
463 1 4 -0.190923 38.721317 23.201366 25.850990 # Cd LIG
464 1 4 -0.190923 39.816315 22.549366 26.397991 # Cd LIG
465 1 1 1.051130 45.774315 22.276367 25.631990 # Ca LIG
466 1 3 0.616091 30.004318 26.623367 25.096991 # Cc LIG
467 1 2 -0.169815 35.584488 25.808466 3.405001 # Cb LIG
468 1 4 -0.190923 36.729317 25.157368 24.677990 # Cd LIG
469 1 2 -0.169815 37.525486 24.324465 3.164002 # Cb LIG
470 1 4 -0.190923 27.758316 25.691366 24.879992 # Cd LIG
471 1 4 -0.190923 28.851318 26.345367 24.330992 # Cd LIG
472 1 1 1.051130 34.806316 26.630367 25.095991 # Ca LIG
473 1 3 0.616091 33.511314 30.630367 27.407991 # Cc LIG
474 1 2 -0.169815 29.999317 26.209366 26.464991 # Cb LIG
475 1 4 -0.190923 28.881317 25.534367 26.983992 # Cd LIG
476 1 2 -0.169815 27.744316 25.267366 26.225990 # Cb LIG
477 1 4 -0.190923 33.823315 33.042366 27.192991 # Cd LIG
478 1 4 -0.190923 33.848316 31.769367 26.643991 # Cd LIG
479 1 1 1.051130 31.118317 26.467365 27.401991 # Ca LIG
480 1 3 0.616091 35.223488 25.608465 2.037001 # Cc LIG
481 1 2 -0.169815 33.147488 30.866465 1.104002 # Cb LIG
482 1 4 -0.190923 33.115486 32.171463 1.623001 # Cd LIG
483 1 2 -0.169815 33.450485 33.291466 0.865001 # Cb LIG
484 1 4 -0.190923 37.151485 24.127466 1.818002 # Cd LIG
485 1 4 -0.190923 36.039486 24.748465 1.269002 # Cd LIG
486 1 1 1.051130 32.815487 29.766466 2.041002 # Ca LIG
487 1 8 -0.683695 34.144485 26.169466 1.445001 # Oc LIG
488 1 6 -0.688200 32.935486 28.552465 1.627002 # Oa LIG
489 1 7 -0.706966 35.226315 26.811367 26.289991 # Ob LIG
490 1 8 -0.683695 33.571316 29.416367 26.814991 # Oc LIG
491 1 6 -0.688200 32.110317 27.178368 26.990992 # Oa LIG
492 1 7 -0.706966 32.448486 30.038465 3.234001 # Ob LIG
493 1 8 -0.683695 31.027317 27.280367 24.505991 # Oc LIG
494 1 6 -0.688200 33.695316 27.137367 24.683990 # Oa LIG
495 1 7 -0.706966 31.061485 26.035465 0.923002 # Ob LIG
496 1 8 -0.683695 41.994316 21.620367 26.222992 # Oc LIG
497 1 6 -0.688200 44.661316 21.774366 26.042992 # Oa LIG
498 1 7 -0.706966 42.023483 22.910465 1.378001 # Ob LIG
499 1 8 -0.683695 44.530487 19.514465 3.160002 # Oc LIG
500 1 6 -0.688200 43.075485 21.751465 2.984001 # Oa LIG
501 1 7 -0.706966 43.435318 18.885366 26.739990 # Ob LIG
502 1 8 -0.683695 45.110485 22.784466 0.858001 # Oc LIG
503 1 6 -0.688200 43.906487 20.398464 0.676002 # Oa LIG
504 1 7 -0.706966 46.195316 22.094366 24.438992 # Ob LIG
505 1 5 0.135033 39.898697 23.709558 8.870998 # H LIG
506 1 5 0.135033 45.054695 17.323559 4.391998 # H LIG
507 1 5 0.135033 45.023697 15.038558 10.351998 # H LIG
508 1 5 0.135033 43.800694 16.670559 6.558998 # H LIG
509 1 5 0.135033 48.712696 25.495558 8.026999 # H LIG
510 1 5 0.135033 46.728695 24.377558 8.991999 # H LIG
511 1 5 0.135033 47.953693 23.553556 4.259998 # H LIG
512 1 5 0.135033 37.834694 23.390558 5.717999 # H LIG
513 1 5 0.135033 39.798695 22.238558 6.681998 # H LIG
514 1 5 0.135033 36.977695 25.396559 4.962998 # H LIG
515 1 5 0.135033 26.870697 25.555557 3.505998 # H LIG
516 1 5 0.135033 28.833694 26.703558 9.456999 # H LIG
517 1 5 0.135033 34.121696 33.917557 5.820998 # H LIG
518 1 5 0.135033 28.937695 25.235558 7.269999 # H LIG
519 1 5 0.135033 34.148697 31.642557 4.852999 # H LIG
520 1 5 0.135033 35.756695 24.570559 7.148998 # H LIG
521 1 5 0.135033 37.735695 23.445559 8.114999 # H LIG
522 1 5 0.135033 32.801697 32.282558 9.579998 # H LIG
523 1 9 0.918944 43.350693 20.371557 4.591999 # Zn LIG
524 1 9 0.918944 44.966694 21.333557 9.202998 # Zn LIG
525 1 9 0.918944 43.321693 22.249557 6.898998 # Zn LIG
526 1 9 0.918944 32.355694 26.704557 9.239999 # Zn LIG
527 1 9 0.918944 32.381695 28.590559 4.630999 # Zn LIG
528 1 9 0.918944 33.998695 27.625559 6.934999 # Zn LIG