LAMMPS data file. CGCMM style. atom_style full generated by VMD/TopoTools v1.5 on Sat Apr 22 10:15:17 PDT 2017
 2712 atoms
 0 bonds
 0 angles
 0 dihedrals
 0 impropers
 10 atom types
 0 bond types
 0 angle types
 0 dihedral types
 0 improper types
 0.451838 52.642840  xlo xhi
 0.325101 45.523500  ylo yhi
 -0.000120 27.527121  zlo zhi

# Pair Coeffs
#
# 1  CH4
# 2  Ca
# 3  Cb
# 4  Cc
# 5  Cd
# 6  H
# 7  Oa
# 8  Ob
# 9  Oc
# 10  Zn

 Masses

 1 16.040001 # CH4
 2 12.011000 # Ca
 3 12.011000 # Cb
 4 12.011000 # Cc
 5 12.011000 # Cd
 6 1.008000 # H
 7 15.999000 # Oa
 8 15.999000 # Ob
 9 15.999000 # Oc
 10 65.379997 # Zn

 Atoms

1 1 1 0.000000 52.190678 45.197601 14.222000 # CH4 
2 2 1 0.000000 52.190678 45.197601 15.140000 # CH4 
3 3 1 0.000000 52.190678 45.197601 16.056999 # CH4 
4 4 1 0.000000 52.190678 45.197601 16.975000 # CH4 
5 5 1 0.000000 52.190678 45.197601 17.892000 # CH4 
6 6 1 0.000000 52.190678 45.197601 18.810001 # CH4 
7 7 1 0.000000 52.190678 45.197601 19.728001 # CH4 
8 8 1 0.000000 52.190678 45.197601 20.645000 # CH4 
9 9 1 0.000000 52.190678 45.197601 21.563000 # CH4 
10 10 1 0.000000 52.190678 45.197601 22.480000 # CH4 
11 11 1 0.000000 52.190678 45.197601 23.398001 # CH4 
12 12 1 0.000000 52.190678 45.197601 24.315001 # CH4 
13 13 1 0.000000 52.190678 45.197601 25.233000 # CH4 
14 14 1 0.000000 52.190678 45.197601 26.151001 # CH4 
15 15 1 0.000000 52.190678 45.197601 27.068001 # CH4 
16 16 1 0.000000 52.190678 45.197601 0.459000 # CH4 
17 17 1 0.000000 52.190678 45.197601 1.376000 # CH4 
18 18 1 0.000000 52.190678 45.197601 2.294000 # CH4 
19 19 1 0.000000 52.190678 45.197601 3.212000 # CH4 
20 20 1 0.000000 52.190678 45.197601 4.129000 # CH4 
21 21 1 0.000000 52.190678 45.197601 5.047000 # CH4 
22 22 1 0.000000 52.190678 45.197601 5.964000 # CH4 
23 23 1 0.000000 52.190678 45.197601 6.882000 # CH4 
24 24 1 0.000000 52.190678 45.197601 7.799000 # CH4 
25 25 1 0.000000 52.190678 45.197601 8.717000 # CH4 
26 26 1 0.000000 52.190678 45.197601 9.635000 # CH4 
27 27 1 0.000000 52.190678 45.197601 10.552000 # CH4 
28 28 1 0.000000 52.190678 45.197601 11.470000 # CH4 
29 29 1 0.000000 52.190678 45.197601 12.387000 # CH4 
30 30 1 0.000000 52.190678 45.197601 13.305000 # CH4 
31 31 1 0.000000 52.190678 22.599600 14.222000 # CH4 
32 32 1 0.000000 52.190678 22.599600 15.140000 # CH4 
33 33 1 0.000000 52.190678 22.599600 16.056999 # CH4 
34 34 1 0.000000 52.190678 22.599600 16.975000 # CH4 
35 35 1 0.000000 52.190678 22.599600 17.892000 # CH4 
36 36 1 0.000000 52.190678 22.599600 18.810001 # CH4 
37 37 1 0.000000 52.190678 22.599600 19.728001 # CH4 
38 38 1 0.000000 52.190678 22.599600 20.645000 # CH4 
39 39 1 0.000000 52.190678 22.599600 21.563000 # CH4 
40 40 1 0.000000 52.190678 22.599600 22.480000 # CH4 
41 41 1 0.000000 52.190678 22.599600 23.398001 # CH4 
42 42 1 0.000000 52.190678 22.599600 24.315001 # CH4 
43 43 1 0.000000 52.190678 22.599600 25.233000 # CH4 
44 44 1 0.000000 52.190678 22.599600 26.151001 # CH4 
45 45 1 0.000000 52.190678 22.599600 27.068001 # CH4 
46 46 1 0.000000 52.190678 22.599600 0.459000 # CH4 
47 47 1 0.000000 52.190678 22.599600 1.376000 # CH4 
48 48 1 0.000000 52.190678 22.599600 2.294000 # CH4 
49 49 1 0.000000 52.190678 22.599600 3.212000 # CH4 
50 50 1 0.000000 52.190678 22.599600 4.129000 # CH4 
51 51 1 0.000000 52.190678 22.599600 5.047000 # CH4 
52 52 1 0.000000 52.190678 22.599600 5.964000 # CH4 
53 53 1 0.000000 52.190678 22.599600 6.882000 # CH4 
54 54 1 0.000000 52.190678 22.599600 7.799000 # CH4 
55 55 1 0.000000 52.190678 22.599600 8.717000 # CH4 
56 56 1 0.000000 52.190678 22.599600 9.635000 # CH4 
57 57 1 0.000000 52.190678 22.599600 10.552000 # CH4 
58 58 1 0.000000 52.190678 22.599600 11.470000 # CH4 
59 59 1 0.000000 52.190678 22.599600 12.387000 # CH4 
60 60 1 0.000000 52.190678 22.599600 13.305000 # CH4 
61 61 1 0.000000 26.095676 45.197601 14.222000 # CH4 
62 62 1 0.000000 26.095676 45.197601 15.140000 # CH4 
63 63 1 0.000000 26.095676 45.197601 16.056999 # CH4 
64 64 1 0.000000 26.095676 45.197601 16.975000 # CH4 
65 65 1 0.000000 26.095676 45.197601 17.892000 # CH4 
66 66 1 0.000000 26.095676 45.197601 18.810001 # CH4 
67 67 1 0.000000 26.095676 45.197601 19.728001 # CH4 
68 68 1 0.000000 26.095676 45.197601 20.645000 # CH4 
69 69 1 0.000000 26.095676 45.197601 21.563000 # CH4 
70 70 1 0.000000 26.095676 45.197601 22.480000 # CH4 
71 71 1 0.000000 26.095676 45.197601 23.398001 # CH4 
72 72 1 0.000000 26.095676 45.197601 24.315001 # CH4 
73 73 1 0.000000 26.095676 45.197601 25.233000 # CH4 
74 74 1 0.000000 26.095676 45.197601 26.151001 # CH4 
75 75 1 0.000000 26.095676 45.197601 27.068001 # CH4 
76 76 1 0.000000 26.095676 45.197601 0.459000 # CH4 
77 77 1 0.000000 26.095676 45.197601 1.376000 # CH4 
78 78 1 0.000000 26.095676 45.197601 2.294000 # CH4 
79 79 1 0.000000 26.095676 45.197601 3.212000 # CH4 
80 80 1 0.000000 26.095676 45.197601 4.129000 # CH4 
81 81 1 0.000000 26.095676 45.197601 5.047000 # CH4 
82 82 1 0.000000 26.095676 45.197601 5.964000 # CH4 
83 83 1 0.000000 26.095676 45.197601 6.882000 # CH4 
84 84 1 0.000000 26.095676 45.197601 7.799000 # CH4 
85 85 1 0.000000 26.095676 45.197601 8.717000 # CH4 
86 86 1 0.000000 26.095676 45.197601 9.635000 # CH4 
87 87 1 0.000000 26.095676 45.197601 10.552000 # CH4 
88 88 1 0.000000 26.095676 45.197601 11.470000 # CH4 
89 89 1 0.000000 26.095676 45.197601 12.387000 # CH4 
90 90 1 0.000000 26.095676 45.197601 13.305000 # CH4 
91 91 1 0.000000 26.095676 22.599600 14.222000 # CH4 
92 92 1 0.000000 26.095676 22.599600 15.140000 # CH4 
93 93 1 0.000000 26.095676 22.599600 16.056999 # CH4 
94 94 1 0.000000 26.095676 22.599600 16.975000 # CH4 
95 95 1 0.000000 26.095676 22.599600 17.892000 # CH4 
96 96 1 0.000000 26.095676 22.599600 18.810001 # CH4 
97 97 1 0.000000 26.095676 22.599600 19.728001 # CH4 
98 98 1 0.000000 26.095676 22.599600 20.645000 # CH4 
99 99 1 0.000000 26.095676 22.599600 21.563000 # CH4 
100 100 1 0.000000 26.095676 22.599600 22.480000 # CH4 
101 101 1 0.000000 26.095676 22.599600 23.398001 # CH4 
102 102 1 0.000000 26.095676 22.599600 24.315001 # CH4 
103 103 1 0.000000 26.095676 22.599600 25.233000 # CH4 
104 104 1 0.000000 26.095676 22.599600 26.151001 # CH4 
105 105 1 0.000000 26.095676 22.599600 27.068001 # CH4 
106 106 1 0.000000 26.095676 22.599600 0.459000 # CH4 
107 107 1 0.000000 26.095676 22.599600 1.376000 # CH4 
108 108 1 0.000000 26.095676 22.599600 2.294000 # CH4 
109 109 1 0.000000 26.095676 22.599600 3.212000 # CH4 
110 110 1 0.000000 26.095676 22.599600 4.129000 # CH4 
111 111 1 0.000000 26.095676 22.599600 5.047000 # CH4 
112 112 1 0.000000 26.095676 22.599600 5.964000 # CH4 
113 113 1 0.000000 26.095676 22.599600 6.882000 # CH4 
114 114 1 0.000000 26.095676 22.599600 7.799000 # CH4 
115 115 1 0.000000 26.095676 22.599600 8.717000 # CH4 
116 116 1 0.000000 26.095676 22.599600 9.635000 # CH4 
117 117 1 0.000000 26.095676 22.599600 10.552000 # CH4 
118 118 1 0.000000 26.095676 22.599600 11.470000 # CH4 
119 119 1 0.000000 26.095676 22.599600 12.387000 # CH4 
120 120 1 0.000000 26.095676 22.599600 13.305000 # CH4 
121 121 10 0.000000 5.331000 7.994000 21.569241 # Zn LIG
122 121 10 0.000000 18.378000 30.594000 21.569241 # Zn LIG
123 121 10 0.000000 31.426001 7.994000 21.569241 # Zn LIG
124 121 10 0.000000 44.473999 30.594000 21.569241 # Zn LIG
125 121 2 0.000000 5.724000 9.170000 18.988241 # Ca LIG
126 121 2 0.000000 18.771999 31.768999 18.988241 # Ca LIG
127 121 2 0.000000 31.819000 9.170000 18.988241 # Ca LIG
128 121 2 0.000000 44.867001 31.768999 18.988241 # Ca LIG
129 121 3 0.000000 6.104000 10.244000 18.040241 # Cb LIG
130 121 3 0.000000 19.150999 32.842999 18.040241 # Cb LIG
131 121 3 0.000000 32.199001 10.244000 18.040241 # Cb LIG
132 121 3 0.000000 45.247002 32.842999 18.040241 # Cb LIG
133 121 5 0.000000 6.937000 11.262000 18.520241 # Cd LIG
134 121 5 0.000000 19.983999 33.861000 18.520241 # Cd LIG
135 121 5 0.000000 33.032001 11.262000 18.520241 # Cd LIG
136 121 5 0.000000 46.080002 33.861000 18.520241 # Cd LIG
137 121 6 0.000000 7.258000 11.221000 19.558241 # H LIG
138 121 6 0.000000 20.306000 33.820000 19.558241 # H LIG
139 121 6 0.000000 33.353001 11.221000 19.558241 # H LIG
140 121 6 0.000000 46.401001 33.820000 19.558241 # H LIG
141 121 8 0.000000 6.191000 9.168000 20.176241 # Ob LIG
142 121 8 0.000000 19.238001 31.767000 20.176241 # Ob LIG
143 121 8 0.000000 32.285999 9.168000 20.176241 # Ob LIG
144 121 8 0.000000 45.334000 31.767000 20.176241 # Ob LIG
145 121 7 0.000000 4.915000 8.263000 18.567242 # Oa LIG
146 121 7 0.000000 17.962999 30.862000 18.567242 # Oa LIG
147 121 7 0.000000 31.010000 8.263000 18.567242 # Oa LIG
148 121 7 0.000000 44.057999 30.862000 18.567242 # Oa LIG
149 121 9 0.000000 8.191000 13.251000 18.306240 # Oc LIG
150 121 9 0.000000 21.238001 35.849998 18.306240 # Oc LIG
151 121 9 0.000000 34.285999 13.251000 18.306240 # Oc LIG
152 121 9 0.000000 47.334000 35.849998 18.306240 # Oc LIG
153 121 10 0.000000 4.258000 6.452000 19.275242 # Zn LIG
154 121 10 0.000000 17.306000 29.052000 19.275242 # Zn LIG
155 121 10 0.000000 30.353001 6.452000 19.275242 # Zn LIG
156 121 10 0.000000 43.401001 29.052000 19.275242 # Zn LIG
157 121 10 0.000000 3.459000 8.152000 23.863241 # Zn LIG
158 121 10 0.000000 16.507000 30.750999 23.863241 # Zn LIG
159 121 10 0.000000 29.554001 8.152000 23.863241 # Zn LIG
160 121 10 0.000000 42.602001 30.750999 23.863241 # Zn LIG
161 121 10 0.000000 7.717000 14.605000 19.721241 # Zn LIG
162 121 10 0.000000 20.764999 37.203999 19.721241 # Zn LIG
163 121 10 0.000000 33.812000 14.605000 19.721241 # Zn LIG
164 121 10 0.000000 46.860001 37.203999 19.721241 # Zn LIG
165 121 7 0.000000 4.698000 6.678000 23.155241 # Oa LIG
166 121 7 0.000000 17.746000 29.277000 23.155241 # Oa LIG
167 121 7 0.000000 30.794001 6.678000 23.155241 # Oa LIG
168 121 7 0.000000 43.841000 29.277000 23.155241 # Oa LIG
169 121 7 0.000000 3.434000 7.658000 20.861240 # Oa LIG
170 121 7 0.000000 16.482000 30.257000 20.861240 # Oa LIG
171 121 7 0.000000 29.530001 7.658000 20.861240 # Oa LIG
172 121 7 0.000000 42.577000 30.257000 20.861240 # Oa LIG
173 121 9 0.000000 4.857000 9.348000 22.984241 # Oc LIG
174 121 9 0.000000 17.905001 31.947001 22.984241 # Oc LIG
175 121 9 0.000000 30.952000 9.348000 22.984241 # Oc LIG
176 121 9 0.000000 44.000000 31.947001 22.984241 # Oc LIG
177 121 9 0.000000 5.667000 6.186000 20.690241 # Oc LIG
178 121 9 0.000000 18.715000 28.785000 20.690241 # Oc LIG
179 121 9 0.000000 31.763000 6.186000 20.690241 # Oc LIG
180 121 9 0.000000 44.810001 28.785000 20.690241 # Oc LIG
181 121 4 0.000000 5.670000 10.272000 23.559240 # Cc LIG
182 121 4 0.000000 18.718000 32.870998 23.559240 # Cc LIG
183 121 4 0.000000 31.764999 10.272000 23.559240 # Cc LIG
184 121 4 0.000000 44.813000 32.870998 23.559240 # Cc LIG
185 121 2 0.000000 7.324000 13.429000 22.302240 # Ca LIG
186 121 2 0.000000 20.371000 36.028000 22.302240 # Ca LIG
187 121 2 0.000000 33.418999 13.429000 22.302240 # Ca LIG
188 121 2 0.000000 46.466999 36.028000 22.302240 # Ca LIG
189 121 3 0.000000 6.944000 12.355000 23.250240 # Cb LIG
190 121 3 0.000000 19.992001 34.953999 23.250240 # Cb LIG
191 121 3 0.000000 33.039001 12.355000 23.250240 # Cb LIG
192 121 3 0.000000 46.087002 34.953999 23.250240 # Cb LIG
193 121 4 0.000000 7.378000 12.327000 17.730240 # Cc LIG
194 121 4 0.000000 20.424999 34.925999 17.730240 # Cc LIG
195 121 4 0.000000 33.473000 12.327000 17.730240 # Cc LIG
196 121 4 0.000000 46.521000 34.925999 17.730240 # Cc LIG
197 121 5 0.000000 6.111000 11.337000 22.770241 # Cd LIG
198 121 5 0.000000 19.159000 33.936001 22.770241 # Cd LIG
199 121 5 0.000000 32.206001 11.337000 22.770241 # Cd LIG
200 121 5 0.000000 45.254002 33.936001 22.770241 # Cd LIG
201 121 6 0.000000 5.790000 11.379000 21.732241 # H LIG
202 121 6 0.000000 18.837000 33.978001 21.732241 # H LIG
203 121 6 0.000000 31.885000 11.379000 21.732241 # H LIG
204 121 6 0.000000 44.932999 33.978001 21.732241 # H LIG
205 121 8 0.000000 6.857000 13.431000 21.113241 # Ob LIG
206 121 8 0.000000 19.905001 36.029999 21.113241 # Ob LIG
207 121 8 0.000000 32.952000 13.431000 21.113241 # Ob LIG
208 121 8 0.000000 46.000000 36.029999 21.113241 # Ob LIG
209 121 7 0.000000 8.133000 14.336000 22.723240 # Oa LIG
210 121 7 0.000000 21.180000 36.936001 22.723240 # Oa LIG
211 121 7 0.000000 34.228001 14.336000 22.723240 # Oa LIG
212 121 7 0.000000 47.276001 36.936001 22.723240 # Oa LIG
213 121 10 0.000000 8.790000 16.146999 22.015240 # Zn LIG
214 121 10 0.000000 21.837000 38.745998 22.015240 # Zn LIG
215 121 10 0.000000 34.884998 16.146999 22.015240 # Zn LIG
216 121 10 0.000000 47.932999 38.745998 22.015240 # Zn LIG
217 121 10 0.000000 9.589000 14.447000 17.427240 # Zn LIG
218 121 10 0.000000 22.636000 37.046001 17.427240 # Zn LIG
219 121 10 0.000000 35.683998 14.447000 17.427240 # Zn LIG
220 121 10 0.000000 48.731998 37.046001 17.427240 # Zn LIG
221 121 7 0.000000 8.349000 15.921000 18.135241 # Oa LIG
222 121 7 0.000000 21.396999 38.520000 18.135241 # Oa LIG
223 121 7 0.000000 34.445000 15.921000 18.135241 # Oa LIG
224 121 7 0.000000 47.492001 38.520000 18.135241 # Oa LIG
225 121 7 0.000000 9.613000 14.941000 20.429241 # Oa LIG
226 121 7 0.000000 22.660999 37.540001 20.429241 # Oa LIG
227 121 7 0.000000 35.709000 14.941000 20.429241 # Oa LIG
228 121 7 0.000000 48.756001 37.540001 20.429241 # Oa LIG
229 121 9 0.000000 7.380000 16.413000 20.600241 # Oc LIG
230 121 9 0.000000 20.427999 39.013000 20.600241 # Oc LIG
231 121 9 0.000000 33.476002 16.413000 20.600241 # Oc LIG
232 121 9 0.000000 46.522999 39.013000 20.600241 # Oc LIG
233 121 10 0.000000 8.790000 31.212999 19.721241 # Zn LIG
234 121 10 0.000000 21.837000 8.614000 19.721241 # Zn LIG
235 121 10 0.000000 34.884998 31.212999 19.721241 # Zn LIG
236 121 10 0.000000 47.932999 8.614000 19.721241 # Zn LIG
237 121 10 0.000000 9.589000 29.513000 22.015240 # Zn LIG
238 121 10 0.000000 22.636000 6.914000 22.015240 # Zn LIG
239 121 10 0.000000 35.683998 29.513000 22.015240 # Zn LIG
240 121 10 0.000000 48.731998 6.914000 22.015240 # Zn LIG
241 121 7 0.000000 9.613000 30.007000 18.135241 # Oa LIG
242 121 7 0.000000 22.660999 7.408000 18.135241 # Oa LIG
243 121 7 0.000000 35.709000 30.007000 18.135241 # Oa LIG
244 121 7 0.000000 48.756001 7.408000 18.135241 # Oa LIG
245 121 7 0.000000 8.349000 30.987000 22.723240 # Oa LIG
246 121 7 0.000000 21.396999 8.388000 22.723240 # Oa LIG
247 121 7 0.000000 34.445000 30.987000 22.723240 # Oa LIG
248 121 7 0.000000 47.492001 8.388000 22.723240 # Oa LIG
249 121 7 0.000000 4.698000 21.743999 20.861240 # Oa LIG
250 121 7 0.000000 17.746000 44.342999 20.861240 # Oa LIG
251 121 7 0.000000 30.794001 21.743999 20.861240 # Oa LIG
252 121 7 0.000000 43.841000 44.342999 20.861240 # Oa LIG
253 121 9 0.000000 5.667000 21.252001 18.396240 # Oc LIG
254 121 9 0.000000 18.715000 43.851002 18.396240 # Oc LIG
255 121 9 0.000000 31.763000 21.252001 18.396240 # Oc LIG
256 121 9 0.000000 44.810001 43.851002 18.396240 # Oc LIG
257 121 10 0.000000 4.258000 21.518000 23.863241 # Zn LIG
258 121 10 0.000000 17.306000 44.118000 23.863241 # Zn LIG
259 121 10 0.000000 30.353001 21.518000 23.863241 # Zn LIG
260 121 10 0.000000 43.401001 44.118000 23.863241 # Zn LIG
261 121 10 0.000000 8.790000 1.081000 17.427240 # Zn LIG
262 121 10 0.000000 21.837000 23.680000 17.427240 # Zn LIG
263 121 10 0.000000 34.884998 1.081000 17.427240 # Zn LIG
264 121 10 0.000000 47.932999 23.680000 17.427240 # Zn LIG
265 121 7 0.000000 8.349000 0.855000 20.429241 # Oa LIG
266 121 7 0.000000 21.396999 23.454000 20.429241 # Oa LIG
267 121 7 0.000000 34.445000 0.855000 20.429241 # Oa LIG
268 121 7 0.000000 47.492001 23.454000 20.429241 # Oa LIG
269 121 9 0.000000 7.380000 1.347000 22.894241 # Oc LIG
270 121 9 0.000000 20.427999 23.947001 22.894241 # Oc LIG
271 121 9 0.000000 33.476002 1.347000 22.894241 # Oc LIG
272 121 9 0.000000 46.522999 23.947001 22.894241 # Oc LIG
273 121 9 0.000000 4.857000 39.480000 18.396240 # Oc LIG
274 121 9 0.000000 17.905001 16.881001 18.396240 # Oc LIG
275 121 9 0.000000 30.952999 39.480000 18.396240 # Oc LIG
276 121 9 0.000000 44.000000 16.881001 18.396240 # Oc LIG
277 121 10 0.000000 5.331000 38.126999 23.863241 # Zn LIG
278 121 10 0.000000 18.378000 15.527000 23.863241 # Zn LIG
279 121 10 0.000000 31.426001 38.126999 23.863241 # Zn LIG
280 121 10 0.000000 44.473999 15.527000 23.863241 # Zn LIG
281 121 2 0.000000 5.724000 39.301998 21.282242 # Ca LIG
282 121 2 0.000000 18.771999 16.702999 21.282242 # Ca LIG
283 121 2 0.000000 31.819000 39.301998 21.282242 # Ca LIG
284 121 2 0.000000 44.867001 16.702999 21.282242 # Ca LIG
285 121 3 0.000000 6.104000 40.375999 20.334240 # Cb LIG
286 121 3 0.000000 19.150999 17.777000 20.334240 # Cb LIG
287 121 3 0.000000 32.199001 40.375999 20.334240 # Cb LIG
288 121 3 0.000000 45.247002 17.777000 20.334240 # Cb LIG
289 121 4 0.000000 5.670000 40.403999 18.972240 # Cc LIG
290 121 4 0.000000 18.718000 17.805000 18.972240 # Cc LIG
291 121 4 0.000000 31.764999 40.403999 18.972240 # Cc LIG
292 121 4 0.000000 44.813000 17.805000 18.972240 # Cc LIG
293 121 5 0.000000 6.937000 41.394001 20.814240 # Cd LIG
294 121 5 0.000000 19.983999 18.795000 20.814240 # Cd LIG
295 121 5 0.000000 33.032001 41.394001 20.814240 # Cd LIG
296 121 5 0.000000 46.080002 18.795000 20.814240 # Cd LIG
297 121 6 0.000000 7.258000 41.353001 21.852242 # H LIG
298 121 6 0.000000 20.306000 18.754000 21.852242 # H LIG
299 121 6 0.000000 33.353001 41.353001 21.852242 # H LIG
300 121 6 0.000000 46.401001 18.754000 21.852242 # H LIG
301 121 8 0.000000 6.191000 39.299999 22.470242 # Ob LIG
302 121 8 0.000000 19.238001 16.701000 22.470242 # Ob LIG
303 121 8 0.000000 32.285999 39.299999 22.470242 # Ob LIG
304 121 8 0.000000 45.334000 16.701000 22.470242 # Ob LIG
305 121 7 0.000000 4.915000 38.395000 20.861240 # Oa LIG
306 121 7 0.000000 17.962999 15.796000 20.861240 # Oa LIG
307 121 7 0.000000 31.010000 38.395000 20.861240 # Oa LIG
308 121 7 0.000000 44.057999 15.796000 20.861240 # Oa LIG
309 121 3 0.000000 6.944000 42.487000 18.662241 # Cb LIG
310 121 3 0.000000 19.992001 19.888000 18.662241 # Cb LIG
311 121 3 0.000000 33.039001 42.487000 18.662241 # Cb LIG
312 121 3 0.000000 46.087002 19.888000 18.662241 # Cb LIG
313 121 4 0.000000 7.378000 42.459000 20.024240 # Cc LIG
314 121 4 0.000000 20.424999 19.860001 20.024240 # Cc LIG
315 121 4 0.000000 33.473000 42.459000 20.024240 # Cc LIG
316 121 4 0.000000 46.521000 19.860001 20.024240 # Cc LIG
317 121 5 0.000000 6.111000 41.469002 18.182240 # Cd LIG
318 121 5 0.000000 19.159000 18.870001 18.182240 # Cd LIG
319 121 5 0.000000 32.206001 41.469002 18.182240 # Cd LIG
320 121 5 0.000000 45.254002 18.870001 18.182240 # Cd LIG
321 121 7 0.000000 8.133000 44.469002 18.135241 # Oa LIG
322 121 7 0.000000 21.180000 21.868999 18.135241 # Oa LIG
323 121 7 0.000000 34.228001 44.469002 18.135241 # Oa LIG
324 121 7 0.000000 47.276001 21.868999 18.135241 # Oa LIG
325 121 9 0.000000 8.191000 43.382999 20.600241 # Oc LIG
326 121 9 0.000000 21.238001 20.784000 20.600241 # Oc LIG
327 121 9 0.000000 34.285999 43.382999 20.600241 # Oc LIG
328 121 9 0.000000 47.334000 20.784000 20.600241 # Oc LIG
329 121 10 0.000000 7.717000 44.737000 22.015240 # Zn LIG
330 121 10 0.000000 20.764999 22.138000 22.015240 # Zn LIG
331 121 10 0.000000 33.812000 44.737000 22.015240 # Zn LIG
332 121 10 0.000000 46.860001 22.138000 22.015240 # Zn LIG
333 121 10 0.000000 9.589000 44.578999 19.721241 # Zn LIG
334 121 10 0.000000 22.636000 21.980000 19.721241 # Zn LIG
335 121 10 0.000000 35.683998 44.578999 19.721241 # Zn LIG
336 121 10 0.000000 48.731998 21.980000 19.721241 # Zn LIG
337 121 9 0.000000 5.667000 36.318001 22.984241 # Oc LIG
338 121 9 0.000000 18.715000 13.719000 22.984241 # Oc LIG
339 121 9 0.000000 31.763000 36.318001 22.984241 # Oc LIG
340 121 9 0.000000 44.810001 13.719000 22.984241 # Oc LIG
341 121 2 0.000000 7.324000 43.561001 17.714241 # Ca LIG
342 121 2 0.000000 20.371000 20.962000 17.714241 # Ca LIG
343 121 2 0.000000 33.418999 43.561001 17.714241 # Ca LIG
344 121 2 0.000000 46.466999 20.962000 17.714241 # Ca LIG
345 121 8 0.000000 6.857000 43.563999 23.407242 # Ob LIG
346 121 8 0.000000 19.905001 20.964001 23.407242 # Ob LIG
347 121 8 0.000000 32.952000 43.563999 23.407242 # Ob LIG
348 121 8 0.000000 46.000000 20.964001 23.407242 # Ob LIG
349 121 7 0.000000 9.613000 45.073002 22.723240 # Oa LIG
350 121 7 0.000000 22.660999 22.474001 22.723240 # Oa LIG
351 121 7 0.000000 35.709000 45.073002 22.723240 # Oa LIG
352 121 7 0.000000 48.756001 22.474001 22.723240 # Oa LIG
353 121 10 0.000000 3.459000 38.285000 19.275242 # Zn LIG
354 121 10 0.000000 16.507000 15.685000 19.275242 # Zn LIG
355 121 10 0.000000 29.554001 38.285000 19.275242 # Zn LIG
356 121 10 0.000000 42.602001 15.685000 19.275242 # Zn LIG
357 121 7 0.000000 4.698000 36.810001 18.567242 # Oa LIG
358 121 7 0.000000 17.746000 14.211000 18.567242 # Oa LIG
359 121 7 0.000000 30.794001 36.810001 18.567242 # Oa LIG
360 121 7 0.000000 43.841000 14.211000 18.567242 # Oa LIG
361 121 10 0.000000 4.258000 36.584999 21.569241 # Zn LIG
362 121 10 0.000000 17.306000 13.985000 21.569241 # Zn LIG
363 121 10 0.000000 30.353001 36.584999 21.569241 # Zn LIG
364 121 10 0.000000 43.401001 13.985000 21.569241 # Zn LIG
365 121 7 0.000000 3.434000 37.790001 23.155241 # Oa LIG
366 121 7 0.000000 16.482000 15.191000 23.155241 # Oa LIG
367 121 7 0.000000 29.530001 37.790001 23.155241 # Oa LIG
368 121 7 0.000000 42.577000 15.191000 23.155241 # Oa LIG
369 121 9 0.000000 2.523000 22.131001 22.984241 # Oc LIG
370 121 9 0.000000 15.571000 44.730999 22.984241 # Oc LIG
371 121 9 0.000000 28.618999 22.131001 22.984241 # Oc LIG
372 121 9 0.000000 41.666000 44.730999 22.984241 # Oc LIG
373 121 4 0.000000 1.317000 22.372999 23.559240 # Cc LIG
374 121 4 0.000000 14.364000 44.972000 23.559240 # Cc LIG
375 121 4 0.000000 27.412001 22.372999 23.559240 # Cc LIG
376 121 4 0.000000 40.459999 44.972000 23.559240 # Cc LIG
377 121 2 0.000000 10.803000 44.826000 22.302240 # Ca LIG
378 121 2 0.000000 23.851000 22.226999 22.302240 # Ca LIG
379 121 2 0.000000 36.898998 44.826000 22.302240 # Ca LIG
380 121 2 0.000000 49.945999 22.226999 22.302240 # Ca LIG
381 121 3 0.000000 11.923000 45.034000 23.250240 # Cb LIG
382 121 3 0.000000 24.971001 22.434999 23.250240 # Cb LIG
383 121 3 0.000000 38.019001 45.034000 23.250240 # Cb LIG
384 121 3 0.000000 51.066002 22.434999 23.250240 # Cb LIG
385 121 5 0.000000 0.174000 22.223000 22.770241 # Cd LIG
386 121 5 0.000000 13.222000 44.821999 22.770241 # Cd LIG
387 121 5 0.000000 26.268999 22.223000 22.770241 # Cd LIG
388 121 5 0.000000 39.317001 44.821999 22.770241 # Cd LIG
389 121 6 0.000000 0.299000 21.924000 21.732241 # H LIG
390 121 6 0.000000 13.346000 44.522999 21.732241 # H LIG
391 121 6 0.000000 26.393999 21.924000 21.732241 # H LIG
392 121 6 0.000000 39.442001 44.522999 21.732241 # H LIG
393 121 8 0.000000 11.035000 44.421001 21.113241 # Ob LIG
394 121 8 0.000000 24.083000 21.822001 21.113241 # Ob LIG
395 121 8 0.000000 37.130001 44.421001 21.113241 # Ob LIG
396 121 8 0.000000 50.178001 21.822001 21.113241 # Ob LIG
397 121 4 0.000000 6.061000 35.152000 23.559240 # Cc LIG
398 121 4 0.000000 19.108999 12.553000 23.559240 # Cc LIG
399 121 4 0.000000 32.155998 35.152000 23.559240 # Cc LIG
400 121 4 0.000000 45.203999 12.553000 23.559240 # Cc LIG
401 121 2 0.000000 7.968000 32.140999 22.302240 # Ca LIG
402 121 2 0.000000 21.016001 9.542000 22.302240 # Ca LIG
403 121 2 0.000000 34.063999 32.140999 22.302240 # Ca LIG
404 121 2 0.000000 47.111000 9.542000 22.302240 # Ca LIG
405 121 3 0.000000 7.228000 33.007000 23.250240 # Cb LIG
406 121 3 0.000000 20.275999 10.408000 23.250240 # Cb LIG
407 121 3 0.000000 33.323002 33.007000 23.250240 # Cb LIG
408 121 3 0.000000 46.370998 10.408000 23.250240 # Cb LIG
409 121 5 0.000000 6.763000 34.237000 22.770241 # Cd LIG
410 121 5 0.000000 19.809999 11.638000 22.770241 # Cd LIG
411 121 5 0.000000 32.858002 34.237000 22.770241 # Cd LIG
412 121 5 0.000000 45.905998 11.638000 22.770241 # Cd LIG
413 121 6 0.000000 6.959000 34.494999 21.732241 # H LIG
414 121 6 0.000000 20.007000 11.896000 21.732241 # H LIG
415 121 6 0.000000 33.055000 34.494999 21.732241 # H LIG
416 121 6 0.000000 46.102001 11.896000 21.732241 # H LIG
417 121 8 0.000000 8.203000 32.543999 21.113241 # Ob LIG
418 121 8 0.000000 21.250999 9.945000 21.113241 # Ob LIG
419 121 8 0.000000 34.299000 32.543999 21.113241 # Ob LIG
420 121 8 0.000000 47.346001 9.945000 21.113241 # Ob LIG
421 121 9 0.000000 10.524000 30.600000 20.600241 # Oc LIG
422 121 9 0.000000 23.572001 8.001000 20.600241 # Oc LIG
423 121 9 0.000000 36.619999 30.600000 20.600241 # Oc LIG
424 121 9 0.000000 49.667000 8.001000 20.600241 # Oc LIG
425 121 2 0.000000 5.079000 35.655998 18.988241 # Ca LIG
426 121 2 0.000000 18.127001 13.057000 18.988241 # Ca LIG
427 121 2 0.000000 31.174999 35.655998 18.988241 # Ca LIG
428 121 2 0.000000 44.222000 13.057000 18.988241 # Ca LIG
429 121 3 0.000000 5.820000 34.790001 18.040241 # Cb LIG
430 121 3 0.000000 18.867001 12.191000 18.040241 # Cb LIG
431 121 3 0.000000 31.915001 34.790001 18.040241 # Cb LIG
432 121 3 0.000000 44.963001 12.191000 18.040241 # Cb LIG
433 121 5 0.000000 6.285000 33.560001 18.520241 # Cd LIG
434 121 5 0.000000 19.333000 10.961000 18.520241 # Cd LIG
435 121 5 0.000000 32.380001 33.560001 18.520241 # Cd LIG
436 121 5 0.000000 45.428001 10.961000 18.520241 # Cd LIG
437 121 6 0.000000 6.088000 33.301998 19.558241 # H LIG
438 121 6 0.000000 19.136000 10.703000 19.558241 # H LIG
439 121 6 0.000000 32.183998 33.301998 19.558241 # H LIG
440 121 6 0.000000 45.230999 10.703000 19.558241 # H LIG
441 121 8 0.000000 4.844000 35.252998 20.176241 # Ob LIG
442 121 8 0.000000 17.892000 12.654000 20.176241 # Ob LIG
443 121 8 0.000000 30.940001 35.252998 20.176241 # Ob LIG
444 121 8 0.000000 43.987000 12.654000 20.176241 # Ob LIG
445 121 9 0.000000 2.523000 37.198002 20.690241 # Oc LIG
446 121 9 0.000000 15.571000 14.598000 20.690241 # Oc LIG
447 121 9 0.000000 28.618999 37.198002 20.690241 # Oc LIG
448 121 9 0.000000 41.666000 14.598000 20.690241 # Oc LIG
449 121 8 0.000000 2.013000 38.443001 17.882240 # Ob LIG
450 121 8 0.000000 15.060000 15.843000 17.882240 # Ob LIG
451 121 8 0.000000 28.108000 38.443001 17.882240 # Ob LIG
452 121 8 0.000000 41.155998 15.843000 17.882240 # Ob LIG
453 121 2 0.000000 2.244000 38.036999 23.576241 # Ca LIG
454 121 2 0.000000 15.292000 15.438000 23.576241 # Ca LIG
455 121 2 0.000000 28.340000 38.036999 23.576241 # Ca LIG
456 121 2 0.000000 41.387001 15.438000 23.576241 # Ca LIG
457 121 3 0.000000 1.124000 37.828999 22.628241 # Cb LIG
458 121 3 0.000000 14.172000 15.230000 22.628241 # Cb LIG
459 121 3 0.000000 27.219999 37.828999 22.628241 # Cb LIG
460 121 3 0.000000 40.266998 15.230000 22.628241 # Cb LIG
461 121 4 0.000000 1.317000 37.438999 21.265240 # Cc LIG
462 121 4 0.000000 14.364000 14.840000 21.265240 # Cc LIG
463 121 4 0.000000 27.412001 37.438999 21.265240 # Cc LIG
464 121 4 0.000000 40.459999 14.840000 21.265240 # Cc LIG
465 121 5 0.000000 12.874000 15.442000 23.108240 # Cd LIG
466 121 5 0.000000 25.921000 38.041000 23.108240 # Cd LIG
467 121 5 0.000000 38.969002 15.442000 23.108240 # Cd LIG
468 121 5 0.000000 52.016998 38.041000 23.108240 # Cd LIG
469 121 6 0.000000 12.749000 15.741000 17.264240 # H LIG
470 121 6 0.000000 25.797001 38.341000 17.264240 # H LIG
471 121 6 0.000000 38.844002 15.741000 17.264240 # H LIG
472 121 6 0.000000 51.891998 38.341000 17.264240 # H LIG
473 121 2 0.000000 10.803000 14.694000 20.008240 # Ca LIG
474 121 2 0.000000 23.851000 37.292999 20.008240 # Ca LIG
475 121 2 0.000000 36.898998 14.694000 20.008240 # Ca LIG
476 121 2 0.000000 49.945999 37.292999 20.008240 # Ca LIG
477 121 3 0.000000 11.923000 14.902000 20.956242 # Cb LIG
478 121 3 0.000000 24.971001 37.500999 20.956242 # Cb LIG
479 121 3 0.000000 38.019001 14.902000 20.956242 # Cb LIG
480 121 3 0.000000 51.066002 37.500999 20.956242 # Cb LIG
481 121 4 0.000000 11.731000 15.292000 22.318241 # Cc LIG
482 121 4 0.000000 24.778000 37.890999 22.318241 # Cc LIG
483 121 4 0.000000 37.826000 15.292000 22.318241 # Cc LIG
484 121 4 0.000000 50.874001 37.890999 22.318241 # Cc LIG
485 121 5 0.000000 0.174000 37.289001 20.476242 # Cd LIG
486 121 5 0.000000 13.222000 14.690000 20.476242 # Cd LIG
487 121 5 0.000000 26.268999 37.289001 20.476242 # Cd LIG
488 121 5 0.000000 39.317001 14.690000 20.476242 # Cd LIG
489 121 6 0.000000 0.299000 36.990002 19.438240 # H LIG
490 121 6 0.000000 13.346000 14.391000 19.438240 # H LIG
491 121 6 0.000000 26.393999 36.990002 19.438240 # H LIG
492 121 6 0.000000 39.442001 14.391000 19.438240 # H LIG
493 121 8 0.000000 11.035000 14.289000 18.819241 # Ob LIG
494 121 8 0.000000 24.083000 36.888000 18.819241 # Ob LIG
495 121 8 0.000000 37.130001 14.289000 18.819241 # Ob LIG
496 121 8 0.000000 50.178001 36.888000 18.819241 # Ob LIG
497 121 9 0.000000 10.524000 15.534000 22.894241 # Oc LIG
498 121 9 0.000000 23.572001 38.132999 22.894241 # Oc LIG
499 121 9 0.000000 36.619999 15.534000 22.894241 # Oc LIG
500 121 9 0.000000 49.667000 38.132999 22.894241 # Oc LIG
501 121 8 0.000000 4.844000 5.121000 17.882240 # Ob LIG
502 121 8 0.000000 17.892000 27.719999 17.882240 # Ob LIG
503 121 8 0.000000 30.940001 5.121000 17.882240 # Ob LIG
504 121 8 0.000000 43.987000 27.719999 17.882240 # Ob LIG
505 121 9 0.000000 2.523000 7.065000 18.396240 # Oc LIG
506 121 9 0.000000 15.571000 29.664000 18.396240 # Oc LIG
507 121 9 0.000000 28.618999 7.065000 18.396240 # Oc LIG
508 121 9 0.000000 41.666000 29.664000 18.396240 # Oc LIG
509 121 2 0.000000 5.079000 5.524000 23.576241 # Ca LIG
510 121 2 0.000000 18.127001 28.122999 23.576241 # Ca LIG
511 121 2 0.000000 31.174999 5.524000 23.576241 # Ca LIG
512 121 2 0.000000 44.222000 28.122999 23.576241 # Ca LIG
513 121 3 0.000000 5.820000 4.658000 22.628241 # Cb LIG
514 121 3 0.000000 18.867001 27.257000 22.628241 # Cb LIG
515 121 3 0.000000 31.915001 4.658000 22.628241 # Cb LIG
516 121 3 0.000000 44.963001 27.257000 22.628241 # Cb LIG