LAMMPS data file. CGCMM style. atom_style full generated by VMD/TopoTools v1.5 on Tue Jun 13 18:10:49 PDT 2017
 1359 atoms
 10 bonds
 0 angles
 0 dihedrals
 0 impropers
 11 atom types
 1 bond types
 0 angle types
 0 dihedral types
 0 improper types
 -0.257692 43.296309  xlo xhi
 -2.137942 41.386056  ylo yhi
 -0.072001 27.247999  zlo zhi

# Pair Coeffs
#
# 1  Ca
# 2  Cb
# 3  Cc
# 4  Cd
# 5  Cg
# 6  H
# 7  Ni
# 8  Oa
# 9  Ob
# 10  Oc
# 11  Og

 Masses

 1 12.011000 # Ca
 2 12.011000 # Cb
 3 12.011000 # Cc
 4 12.011000 # Cd
 5 12.011000 # Cg
 6 1.008000 # H
 7 58.693001 # Ni
 8 15.999000 # Oa
 9 15.999000 # Ob
 10 15.999000 # Oc
 11 15.999000 # Og

 Atoms

1 1 11 -0.325600 19.056099 28.993792 2.320000 # Og 
2 1 5 0.651200 19.056099 28.993792 1.160000 # Cg 
3 1 11 -0.325600 19.056099 28.993792 0.000000 # Og 
4 2 11 -0.325600 13.612097 38.414791 2.320000 # Og 
5 2 5 0.651200 13.612097 38.414791 1.160000 # Cg 
6 2 11 -0.325600 13.612097 38.414791 0.000000 # Og 
7 3 11 -0.325600 29.943251 10.151500 2.320000 # Og 
8 3 5 0.651200 29.943251 10.151500 1.160000 # Cg 
9 3 11 -0.325600 29.943251 10.151500 0.000000 # Og 
10 4 11 -0.325600 24.500252 19.572500 2.320000 # Og 
11 4 5 0.651200 24.500252 19.572500 1.160000 # Cg 
12 4 11 -0.325600 24.500252 19.572500 0.000000 # Og 
13 5 11 -0.325600 29.944099 28.993792 2.320000 # Og 
14 5 5 0.651200 29.944099 28.993792 1.160000 # Cg 
15 5 11 -0.325600 29.944099 28.993792 0.000000 # Og 
16 6 6 0.130252 23.315117 36.931614 22.406998 # H LIG
17 6 6 0.130252 28.460117 30.566614 18.028000 # H LIG
18 6 6 0.130252 28.359118 28.288612 23.890999 # H LIG
19 6 6 0.130252 27.106117 29.963614 20.128998 # H LIG
20 6 6 0.130252 10.275270 0.999322 21.603998 # H LIG
21 6 6 0.130252 30.033119 37.634613 22.571999 # H LIG
22 6 6 0.130252 31.257118 36.723614 17.855000 # H LIG
23 6 6 0.130252 21.215117 36.630615 19.323999 # H LIG
24 6 6 0.130252 23.141117 35.414612 20.292000 # H LIG
25 6 6 0.130252 42.141270 0.946322 18.570000 # H LIG
26 6 6 0.130252 32.109268 1.032322 17.100998 # H LIG
27 6 6 0.130252 34.033272 2.250322 22.961998 # H LIG
28 6 6 0.130252 39.296268 9.384321 19.382999 # H LIG
29 6 6 0.130252 34.207268 0.735322 20.848000 # H LIG
30 6 6 0.130252 39.397270 7.109322 18.413998 # H LIG
31 6 6 0.130252 40.915268 0.036322 20.683998 # H LIG
32 6 6 0.130252 21.158117 36.664612 21.651999 # H LIG
33 6 6 0.130252 37.972271 7.711321 23.122999 # H LIG
34 6 7 1.286340 26.686117 33.660614 18.158998 # Ni LIG
35 6 7 1.286340 28.262117 34.517612 22.712999 # Ni LIG
36 6 7 1.286340 26.730118 35.453613 20.435999 # Ni LIG
37 6 7 1.286340 37.618271 2.221323 22.818998 # Ni LIG
38 6 7 1.286340 37.573269 4.017322 18.266998 # Ni LIG
39 6 7 1.286340 39.149269 3.158322 20.542999 # Ni LIG
40 6 3 0.449622 27.866117 31.570614 23.056999 # Cc LIG
41 6 2 -0.116375 24.340118 35.890614 17.132000 # Cb LIG
42 6 4 -0.185445 23.243118 36.598614 23.443998 # Cd LIG
43 6 2 -0.116375 22.106117 36.887615 17.368999 # Cb LIG
44 6 4 -0.185445 28.087118 29.147614 23.273998 # Cd LIG
45 6 4 -0.185445 28.154118 30.414614 23.821999 # Cd LIG
46 6 1 0.833564 25.448118 35.605614 23.021000 # Ca LIG
47 6 3 0.449622 29.475117 36.592613 20.778999 # Cc LIG
48 6 2 -0.116375 27.492117 31.370613 21.685999 # Cb LIG
49 6 4 -0.185445 27.421118 30.065613 21.167999 # Cd LIG
50 6 2 -0.116375 27.726118 28.935612 21.925999 # Cb LIG
51 6 4 -0.185445 9.675269 0.324322 20.991999 # Cd LIG
52 6 4 -0.185445 30.323116 37.433613 21.539000 # Cd LIG
53 6 1 0.833564 27.193117 32.471615 20.743999 # Ca LIG
54 6 3 0.449622 24.324118 35.460613 18.500999 # Cc LIG
55 6 2 -0.116375 29.839119 36.362614 19.410000 # Cb LIG
56 6 4 -0.185445 31.006119 36.952614 18.891998 # Cd LIG
57 6 2 -0.116375 10.048268 0.103322 19.647999 # Cb LIG
58 6 4 -0.185445 22.102118 36.453613 18.711998 # Cd LIG
59 6 4 -0.185445 23.169117 35.766613 19.259998 # Cd LIG
60 6 1 0.833564 29.037117 35.550613 18.467999 # Ca LIG
61 6 3 0.449622 35.214272 2.210322 17.924000 # Cc LIG
62 6 2 -0.116375 40.726269 1.310322 23.844999 # Cb LIG
63 6 4 -0.185445 41.889271 0.718322 17.532999 # Cd LIG
64 6 2 -0.116375 20.933117 37.562614 23.607998 # Cb LIG
65 6 4 -0.185445 32.995270 1.211322 17.712999 # Cd LIG
66 6 4 -0.185445 34.061272 1.900322 17.163998 # Cd LIG
67 6 1 0.833564 39.925270 2.128322 17.956999 # Ca LIG
68 6 3 0.449622 38.762268 6.105322 20.202000 # Cc LIG
69 6 2 -0.116375 35.231270 1.780322 19.292999 # Cb LIG
70 6 4 -0.185445 34.135269 1.067322 19.811998 # Cd LIG
71 6 2 -0.116375 32.999271 0.779322 19.056999 # Cb LIG
72 6 4 -0.185445 39.004269 8.527321 19.993000 # Cd LIG
73 6 4 -0.185445 39.072269 7.259322 19.443998 # Cd LIG
74 6 1 0.833564 36.337269 2.066322 20.233999 # Ca LIG
75 6 3 0.449622 40.361271 1.081322 22.475998 # Cc LIG
76 6 2 -0.116375 38.376270 6.304323 21.568998 # Cb LIG
77 6 4 -0.185445 38.300270 7.609322 22.087999 # Cd LIG
78 6 2 -0.116375 38.618271 8.739323 21.334000 # Cb LIG
79 6 4 -0.185445 20.560118 37.342613 22.264000 # Cd LIG
80 6 4 -0.185445 41.205269 0.236322 21.716000 # Cd LIG
81 6 1 0.833564 38.074268 5.203322 22.510998 # Ca LIG
82 6 10 -0.719651 39.266270 1.569322 21.870998 # Oc LIG
83 6 8 -0.731428 38.222271 3.983323 22.092999 # Oa LIG
84 6 9 -0.720115 40.317268 2.323322 19.148998 # Ob LIG
85 6 10 -0.719651 38.891270 4.913322 19.594999 # Oc LIG
86 6 8 -0.731428 37.322269 2.800322 19.815998 # Oa LIG
87 6 9 -0.720115 37.709270 5.444322 23.703999 # Ob LIG
88 6 10 -0.719651 36.184269 2.916322 17.319000 # Oc LIG
89 6 8 -0.731428 38.797272 2.614322 17.538998 # Oa LIG
90 6 9 -0.720115 36.310268 1.628322 21.426998 # Ob LIG
91 6 10 -0.719651 25.295118 34.757614 19.107998 # Oc LIG
92 6 8 -0.731428 27.907118 35.068615 18.884998 # Oa LIG
93 6 9 -0.720115 25.420118 36.043613 21.828999 # Ob LIG
94 6 10 -0.719651 28.001118 32.762615 23.660000 # Oc LIG
95 6 8 -0.731428 26.434118 34.873611 23.438999 # Oa LIG
96 6 9 -0.720115 26.827118 32.230614 19.550999 # Ob LIG
97 6 10 -0.719651 28.378119 36.108612 21.383999 # Oc LIG
98 6 8 -0.731428 27.341118 33.692612 21.160999 # Oa LIG
99 6 9 -0.720115 29.430119 35.353615 17.275999 # Ob LIG
100 6 6 0.130252 23.311541 36.941936 1.917000 # H LIG
101 6 6 0.130252 28.461311 30.568680 24.857998 # H LIG
102 6 6 0.130252 28.355541 28.298935 3.401000 # H LIG
103 6 6 0.130252 27.107311 29.965679 26.958998 # H LIG
104 6 6 0.130252 10.271692 1.009645 1.114000 # H LIG
105 6 6 0.130252 30.029541 37.644936 2.082000 # H LIG
106 6 6 0.130252 31.258310 36.725677 24.684998 # H LIG
107 6 6 0.130252 21.216311 36.632679 26.153997 # H LIG
108 6 6 0.130252 23.142309 35.416679 27.121998 # H LIG
109 6 6 0.130252 42.142464 0.948388 25.399998 # H LIG
110 6 6 0.130252 32.110462 1.034388 23.930998 # H LIG
111 6 6 0.130252 34.029694 2.260644 2.472000 # H LIG
112 6 6 0.130252 39.297462 9.386387 26.212997 # H LIG
113 6 6 0.130252 34.203693 0.745645 0.358000 # H LIG
114 6 6 0.130252 39.398460 7.111388 25.243998 # H LIG
115 6 6 0.130252 40.911694 0.046644 0.194000 # H LIG
116 6 6 0.130252 21.154541 36.674934 1.162000 # H LIG
117 6 6 0.130252 37.968693 7.721643 2.633000 # H LIG
118 6 7 1.286340 26.687309 33.662678 24.988998 # Ni LIG
119 6 7 1.286340 28.258541 34.527935 2.223000 # Ni LIG
120 6 7 1.286340 26.731310 35.455681 27.265999 # Ni LIG
121 6 7 1.286340 37.614693 2.231645 2.329000 # Ni LIG
122 6 7 1.286340 37.574463 4.019388 25.096998 # Ni LIG
123 6 7 1.286340 39.145691 3.168644 0.053000 # Ni LIG
124 6 3 0.449622 27.862541 31.580936 2.567000 # Cc LIG
125 6 2 -0.116375 24.341311 35.892677 23.961998 # Cb LIG
126 6 4 -0.185445 23.239540 36.608936 2.954000 # Cd LIG
127 6 2 -0.116375 22.107309 36.889679 24.198997 # Cb LIG
128 6 4 -0.185445 28.083542 29.157936 2.784000 # Cd LIG
129 6 4 -0.185445 28.150541 30.424934 3.332000 # Cd LIG
130 6 1 0.833564 25.444542 35.615936 2.531000 # Ca LIG
131 6 3 0.449622 29.471540 36.602936 0.289000 # Cc LIG
132 6 2 -0.116375 27.488541 31.380936 1.196000 # Cb LIG
133 6 4 -0.185445 27.417542 30.075935 0.678000 # Cd LIG
134 6 2 -0.116375 27.722542 28.945934 1.436000 # Cb LIG
135 6 4 -0.185445 9.671692 0.334644 0.502000 # Cd LIG
136 6 4 -0.185445 30.319542 37.443935 1.049001 # Cd LIG
137 6 1 0.833564 27.189541 32.481934 0.254000 # Ca LIG
138 6 3 0.449622 24.325310 35.462681 25.330997 # Cc LIG
139 6 2 -0.116375 29.840309 36.364677 26.239998 # Cb LIG
140 6 4 -0.185445 31.007309 36.954678 25.721998 # Cd LIG
141 6 2 -0.116375 10.049461 0.105388 26.477999 # Cb LIG
142 6 4 -0.185445 22.103310 36.455681 25.541998 # Cd LIG
143 6 4 -0.185445 23.170309 35.768681 26.089998 # Cd LIG
144 6 1 0.833564 29.038311 35.552681 25.297998 # Ca LIG
145 6 3 0.449622 35.215462 2.212388 24.753998 # Cc LIG
146 6 2 -0.116375 40.722694 1.320644 3.355000 # Cb LIG
147 6 4 -0.185445 41.890461 0.720388 24.362999 # Cd LIG
148 6 2 -0.116375 20.929541 37.572937 3.118000 # Cb LIG
149 6 4 -0.185445 32.996464 1.213388 24.542997 # Cd LIG
150 6 4 -0.185445 34.062462 1.902388 23.993998 # Cd LIG
151 6 1 0.833564 39.926464 2.130388 24.786999 # Ca LIG
152 6 3 0.449622 38.763462 6.107388 27.031998 # Cc LIG
153 6 2 -0.116375 35.232464 1.782388 26.122997 # Cb LIG
154 6 4 -0.185445 34.136463 1.069388 26.641998 # Cd LIG
155 6 2 -0.116375 33.000462 0.781388 25.886997 # Cb LIG
156 6 4 -0.185445 39.005463 8.529387 26.822998 # Cd LIG
157 6 4 -0.185445 39.073463 7.261387 26.273998 # Cd LIG
158 6 1 0.833564 36.338463 2.068388 27.063997 # Ca LIG
159 6 3 0.449622 40.357693 1.091644 1.986000 # Cc LIG
160 6 2 -0.116375 38.372692 6.314645 1.079000 # Cb LIG
161 6 4 -0.185445 38.296692 7.619644 1.598000 # Cd LIG
162 6 2 -0.116375 38.614693 8.749645 0.844000 # Cb LIG
163 6 4 -0.185445 20.556541 37.352936 1.774000 # Cd LIG
164 6 4 -0.185445 41.201694 0.246644 1.226000 # Cd LIG
165 6 1 0.833564 38.070694 5.213644 2.021000 # Ca LIG
166 6 10 -0.719651 39.262695 1.579644 1.381000 # Oc LIG
167 6 8 -0.731428 38.218693 3.993645 1.603000 # Oa LIG
168 6 9 -0.720115 40.318462 2.325387 25.978998 # Ob LIG
169 6 10 -0.719651 38.892464 4.915388 26.424997 # Oc LIG
170 6 8 -0.731428 37.323463 2.802388 26.645998 # Oa LIG
171 6 9 -0.720115 37.705692 5.454644 3.214000 # Ob LIG
172 6 10 -0.719651 36.185463 2.918388 24.148998 # Oc LIG
173 6 8 -0.731428 38.798462 2.616388 24.368998 # Oa LIG
174 6 9 -0.720115 36.306694 1.638644 0.937001 # Ob LIG
175 6 10 -0.719651 25.296310 34.759678 25.937998 # Oc LIG
176 6 8 -0.731428 27.908310 35.070679 25.714998 # Oa LIG
177 6 9 -0.720115 25.416542 36.053936 1.339000 # Ob LIG
178 6 10 -0.719651 27.997540 32.772934 3.170000 # Oc LIG
179 6 8 -0.731428 26.430542 34.883934 2.949000 # Oa LIG
180 6 9 -0.720115 26.828310 32.232677 26.380999 # Ob LIG
181 6 10 -0.719651 28.374542 36.118935 0.894000 # Oc LIG
182 6 8 -0.731428 27.337540 33.702934 0.671000 # Oa LIG
183 6 9 -0.720115 29.431311 35.355679 24.105999 # Ob LIG
184 6 6 0.130252 23.312733 36.944000 8.747000 # H LIG
185 6 6 0.130252 28.457733 30.579002 4.368000 # H LIG
186 6 6 0.130252 28.356733 28.301003 10.231000 # H LIG
187 6 6 0.130252 27.103733 29.976002 6.469000 # H LIG
188 6 6 0.130252 10.272884 1.011710 7.943999 # H LIG
189 6 6 0.130252 30.030733 37.647003 8.912000 # H LIG
190 6 6 0.130252 31.254734 36.736000 4.195000 # H LIG
191 6 6 0.130252 21.212732 36.643002 5.664000 # H LIG
192 6 6 0.130252 23.138733 35.427002 6.632000 # H LIG
193 6 6 0.130252 42.138885 0.958710 4.910000 # H LIG
194 6 6 0.130252 32.106888 1.044710 3.441000 # H LIG
195 6 6 0.130252 34.030884 2.262710 9.302000 # H LIG
196 6 6 0.130252 39.293884 9.396709 5.723000 # H LIG
197 6 6 0.130252 34.204887 0.747710 7.188000 # H LIG
198 6 6 0.130252 39.394886 7.121710 4.754000 # H LIG
199 6 6 0.130252 40.912884 0.048710 7.024000 # H LIG
200 6 6 0.130252 21.155733 36.677002 7.992000 # H LIG
201 6 6 0.130252 37.969887 7.723709 9.462999 # H LIG
202 6 7 1.286340 26.683733 33.673000 4.499000 # Ni LIG
203 6 7 1.286340 28.259733 34.530003 9.052999 # Ni LIG
204 6 7 1.286340 26.727734 35.466003 6.776000 # Ni LIG
205 6 7 1.286340 37.615887 2.233710 9.158999 # Ni LIG
206 6 7 1.286340 37.570885 4.029710 4.607000 # Ni LIG
207 6 7 1.286340 39.146885 3.170710 6.882999 # Ni LIG
208 6 3 0.449622 27.863733 31.583000 9.396999 # Cc LIG
209 6 2 -0.116375 24.337734 35.903000 3.472000 # Cb LIG
210 6 4 -0.185445 23.240734 36.611000 9.783999 # Cd LIG
211 6 2 -0.116375 22.103733 36.900002 3.709000 # Cb LIG
212 6 4 -0.185445 28.084732 29.160002 9.613999 # Cd LIG
213 6 4 -0.185445 28.151733 30.427002 10.162000 # Cd LIG
214 6 1 0.833564 25.445732 35.618000 9.361000 # Ca LIG
215 6 3 0.449622 29.472733 36.605003 7.118999 # Cc LIG
216 6 2 -0.116375 27.489733 31.383001 8.026000 # Cb LIG
217 6 4 -0.185445 27.418732 30.078001 7.507999 # Cd LIG
218 6 2 -0.116375 27.723732 28.948002 8.266000 # Cb LIG
219 6 4 -0.185445 9.672884 0.336710 7.332000 # Cd LIG
220 6 4 -0.185445 30.320732 37.445999 7.879000 # Cd LIG
221 6 1 0.833564 27.190733 32.484001 7.084000 # Ca LIG
222 6 3 0.449622 24.321733 35.473000 4.841000 # Cc LIG
223 6 2 -0.116375 29.836733 36.375000 5.750000 # Cb LIG
224 6 4 -0.185445 31.003733 36.965000 5.232000 # Cd LIG
225 6 2 -0.116375 10.045884 0.115710 5.988000 # Cb LIG
226 6 4 -0.185445 22.099733 36.466003 5.052000 # Cd LIG
227 6 4 -0.185445 23.166733 35.778999 5.599999 # Cd LIG
228 6 1 0.833564 29.034733 35.563000 4.808000 # Ca LIG
229 6 3 0.449622 35.211884 2.222710 4.264000 # Cc LIG
230 6 2 -0.116375 40.723885 1.322710 10.184999 # Cb LIG
231 6 4 -0.185445 41.886887 0.730710 3.873000 # Cd LIG
232 6 2 -0.116375 20.930733 37.575001 9.948000 # Cb LIG
233 6 4 -0.185445 32.992886 1.223710 4.052999 # Cd LIG
234 6 4 -0.185445 34.058884 1.912710 3.504000 # Cd LIG
235 6 1 0.833564 39.922886 2.140710 4.297000 # Ca LIG
236 6 3 0.449622 38.759884 6.117710 6.542000 # Cc LIG
237 6 2 -0.116375 35.228886 1.792710 5.632999 # Cb LIG
238 6 4 -0.185445 34.132885 1.079710 6.151999 # Cd LIG
239 6 2 -0.116375 32.996887 0.791710 5.397000 # Cb LIG
240 6 4 -0.185445 39.001884 8.539709 6.333000 # Cd LIG
241 6 4 -0.185445 39.069885 7.271709 5.783999 # Cd LIG
242 6 1 0.833564 36.334885 2.078710 6.573999 # Ca LIG
243 6 3 0.449622 40.358887 1.093710 8.816000 # Cc LIG
244 6 2 -0.116375 38.373886 6.316710 7.908999 # Cb LIG
245 6 4 -0.185445 38.297886 7.621710 8.427999 # Cd LIG
246 6 2 -0.116375 38.615887 8.751711 7.674000 # Cb LIG
247 6 4 -0.185445 20.557734 37.355003 8.604000 # Cd LIG
248 6 4 -0.185445 41.202885 0.248710 8.056000 # Cd LIG
249 6 1 0.833564 38.071884 5.215710 8.851000 # Ca LIG
250 6 10 -0.719651 39.263885 1.581710 8.210999 # Oc LIG
251 6 8 -0.731428 38.219887 3.995710 8.433000 # Oa LIG
252 6 9 -0.720115 40.314884 2.335710 5.488999 # Ob LIG
253 6 10 -0.719651 38.888885 4.925710 5.934999 # Oc LIG
254 6 8 -0.731428 37.319885 2.812710 6.156000 # Oa LIG
255 6 9 -0.720115 37.706886 5.456710 10.044000 # Ob LIG
256 6 10 -0.719651 36.181885 2.928710 3.659000 # Oc LIG
257 6 8 -0.731428 38.794884 2.626710 3.879000 # Oa LIG
258 6 9 -0.720115 36.307884 1.640710 7.767000 # Ob LIG
259 6 10 -0.719651 25.292732 34.770000 5.448000 # Oc LIG
260 6 8 -0.731428 27.904732 35.081001 5.224999 # Oa LIG
261 6 9 -0.720115 25.417732 36.056000 8.169000 # Ob LIG
262 6 10 -0.719651 27.998734 32.775002 10.000000 # Oc LIG
263 6 8 -0.731428 26.431732 34.886002 9.778999 # Oa LIG
264 6 9 -0.720115 26.824734 32.243000 5.891000 # Ob LIG
265 6 10 -0.719651 28.375732 36.121002 7.724000 # Oc LIG
266 6 8 -0.731428 27.338734 33.705002 7.500999 # Oa LIG
267 6 9 -0.720115 29.427734 35.366001 3.616000 # Ob LIG
268 6 6 0.130252 23.313927 36.946068 15.576999 # H LIG
269 6 6 0.130252 28.458925 30.581068 11.197999 # H LIG
270 6 6 0.130252 28.357925 28.303068 17.060999 # H LIG
271 6 6 0.130252 27.104925 29.978067 13.298999 # H LIG
272 6 6 0.130252 10.274076 1.013777 14.773998 # H LIG
273 6 6 0.130252 30.031925 37.649067 15.741999 # H LIG
274 6 6 0.130252 31.255926 36.738068 11.024999 # H LIG
275 6 6 0.130252 21.213924 36.645069 12.493999 # H LIG
276 6 6 0.130252 23.139925 35.429070 13.461999 # H LIG
277 6 6 0.130252 42.140076 0.960776 11.739999 # H LIG
278 6 6 0.130252 32.108078 1.046777 10.270999 # H LIG
279 6 6 0.130252 34.032078 2.264776 16.132000 # H LIG
280 6 6 0.130252 39.295078 9.398776 12.552999 # H LIG
281 6 6 0.130252 34.206078 0.749777 14.017999 # H LIG
282 6 6 0.130252 39.396076 7.123776 11.583999 # H LIG
283 6 6 0.130252 40.914078 0.050776 13.853999 # H LIG
284 6 6 0.130252 21.156925 36.679070 14.821999 # H LIG
285 6 6 0.130252 37.971077 7.725776 16.292999 # H LIG
286 6 7 1.286340 26.684925 33.675068 11.328999 # Ni LIG
287 6 7 1.286340 28.260925 34.532066 15.882999 # Ni LIG
288 6 7 1.286340 26.728926 35.468067 13.605999 # Ni LIG
289 6 7 1.286340 37.617077 2.235777 15.988998 # Ni LIG
290 6 7 1.286340 37.572079 4.031776 11.436999 # Ni LIG
291 6 7 1.286340 39.148079 3.172776 13.712999 # Ni LIG
292 6 3 0.449622 27.864925 31.585068 16.226999 # Cc LIG
293 6 2 -0.116375 24.338926 35.905067 10.301999 # Cb LIG
294 6 4 -0.185445 23.241926 36.613068 16.613998 # Cd LIG
295 6 2 -0.116375 22.104925 36.902069 10.538999 # Cb LIG
296 6 4 -0.185445 28.085926 29.162067 16.443998 # Cd LIG
297 6 4 -0.185445 28.152925 30.429068 16.991999 # Cd LIG
298 6 1 0.833564 25.446926 35.620068 16.190998 # Ca LIG
299 6 3 0.449622 29.473925 36.607067 13.948999 # Cc LIG
300 6 2 -0.116375 27.490925 31.385067 14.855999 # Cb LIG
301 6 4 -0.185445 27.419926 30.080067 14.337999 # Cd LIG
302 6 2 -0.116375 27.724926 28.950068 15.095999 # Cb LIG
303 6 4 -0.185445 9.674076 0.338777 14.161999 # Cd LIG
304 6 4 -0.185445 30.321926 37.448067 14.709000 # Cd LIG
305 6 1 0.833564 27.191925 32.486069 13.913999 # Ca LIG
306 6 3 0.449622 24.322926 35.475067 11.670999 # Cc LIG
307 6 2 -0.116375 29.837925 36.377068 12.579999 # Cb LIG
308 6 4 -0.185445 31.004925 36.967068 12.061999 # Cd LIG
309 6 2 -0.116375 10.047077 0.117777 12.817999 # Cb LIG
310 6 4 -0.185445 22.100925 36.468067 11.881999 # Cd LIG
311 6 4 -0.185445 23.167925 35.781067 12.429998 # Cd LIG
312 6 1 0.833564 29.035925 35.565067 11.637999 # Ca LIG
313 6 3 0.449622 35.213078 2.224776 11.093999 # Cc LIG
314 6 2 -0.116375 40.725079 1.324777 17.014999 # Cb LIG
315 6 4 -0.185445 41.888077 0.732777 10.702999 # Cd LIG
316 6 2 -0.116375 20.931927 37.577068 16.778000 # Cb LIG
317 6 4 -0.185445 32.994080 1.225777 10.882999 # Cd LIG
318 6 4 -0.185445 34.060078 1.914777 10.333999 # Cd LIG
319 6 1 0.833564 39.924076 2.142776 11.126999 # Ca LIG
320 6 3 0.449622 38.761078 6.119777 13.371999 # Cc LIG
321 6 2 -0.116375 35.230080 1.794777 12.462999 # Cb LIG
322 6 4 -0.185445 34.134079 1.081777 12.981998 # Cd LIG
323 6 2 -0.116375 32.998077 0.793777 12.226999 # Cb LIG
324 6 4 -0.185445 39.003078 8.541776 13.162999 # Cd LIG
325 6 4 -0.185445 39.071079 7.273776 12.613998 # Cd LIG
326 6 1 0.833564 36.336079 2.080776 13.403999 # Ca LIG
327 6 3 0.449622 40.360077 1.095777 15.645999 # Cc LIG
328 6 2 -0.116375 38.375076 6.318777 14.738998 # Cb LIG
329 6 4 -0.185445 38.299080 7.623776 15.257999 # Cd LIG
330 6 2 -0.116375 38.617077 8.753778 14.503999 # Cb LIG
331 6 4 -0.185445 20.558926 37.357067 15.433999 # Cd LIG
332 6 4 -0.185445 41.204079 0.250776 14.885999 # Cd LIG
333 6 1 0.833564 38.073078 5.217776 15.680999 # Ca LIG
334 6 10 -0.719651 39.265076 1.583776 15.040998 # Oc LIG
335 6 8 -0.731428 38.221077 3.997777 15.262999 # Oa LIG
336 6 9 -0.720115 40.316078 2.337776 12.318998 # Ob LIG
337 6 10 -0.719651 38.890076 4.927776 12.764999 # Oc LIG
338 6 8 -0.731428 37.321079 2.814776 12.985999 # Oa LIG
339 6 9 -0.720115 37.708076 5.458776 16.873999 # Ob LIG
340 6 10 -0.719651 36.183079 2.930777 10.488999 # Oc LIG
341 6 8 -0.731428 38.796078 2.628777 10.708999 # Oa LIG
342 6 9 -0.720115 36.309078 1.642776 14.596999 # Ob LIG
343 6 10 -0.719651 25.293926 34.772068 12.277999 # Oc LIG
344 6 8 -0.731428 27.905926 35.083069 12.054998 # Oa LIG
345 6 9 -0.720115 25.418926 36.058067 14.998999 # Ob LIG
346 6 10 -0.719651 27.999926 32.777069 16.829998 # Oc LIG
347 6 8 -0.731428 26.432926 34.888069 16.608999 # Oa LIG
348 6 9 -0.720115 26.825926 32.245068 12.720999 # Ob LIG
349 6 10 -0.719651 28.376926 36.123070 14.553999 # Oc LIG
350 6 8 -0.731428 27.339926 33.707069 14.330999 # Oa LIG
351 6 9 -0.720115 29.428926 35.368069 10.445999 # Ob LIG
352 6 6 0.130252 34.202694 18.088966 22.406998 # H LIG
353 6 6 0.130252 39.347694 11.723967 18.028000 # H LIG
354 6 6 0.130252 39.246696 9.445967 23.890999 # H LIG
355 6 6 0.130252 37.993694 11.120966 20.128998 # H LIG
356 6 6 0.130252 42.941692 19.841967 21.603998 # H LIG
357 6 6 0.130252 40.920692 18.791967 22.571999 # H LIG
358 6 6 0.130252 42.144695 17.880966 17.855000 # H LIG
359 6 6 0.130252 32.102695 17.787966 19.323999 # H LIG
360 6 6 0.130252 34.028694 16.571966 20.292000 # H LIG
361 6 6 0.130252 31.253693 19.788965 18.570000 # H LIG
362 6 6 0.130252 21.221693 19.874968 17.100998 # H LIG
363 6 6 0.130252 23.145693 21.092966 22.961998 # H LIG
364 6 6 0.130252 28.408695 28.226965 19.382999 # H LIG
365 6 6 0.130252 23.319693 19.577967 20.848000 # H LIG
366 6 6 0.130252 28.509693 25.951967 18.413998 # H LIG
367 6 6 0.130252 30.027695 18.878965 20.683998 # H LIG
368 6 6 0.130252 32.045692 17.821966 21.651999 # H LIG
369 6 6 0.130252 27.084694 26.553965 23.122999 # H LIG
370 6 7 1.286340 37.573692 14.817966 18.158998 # Ni LIG
371 6 7 1.286340 39.149696 15.674967 22.712999 # Ni LIG
372 6 7 1.286340 37.617695 16.610968 20.435999 # Ni LIG
373 6 7 1.286340 26.730694 21.063967 22.818998 # Ni LIG
374 6 7 1.286340 26.685694 22.859966 18.266998 # Ni LIG
375 6 7 1.286340 28.261694 22.000967 20.542999 # Ni LIG
376 6 3 0.449622 38.753693 12.727966 23.056999 # Cc LIG
377 6 2 -0.116375 35.227695 17.047966 17.132000 # Cb LIG
378 6 4 -0.185445 34.130695 17.755966 23.443998 # Cd LIG
379 6 2 -0.116375 32.993694 18.044966 17.368999 # Cb LIG
380 6 4 -0.185445 38.974693 10.304966 23.273998 # Cd LIG
381 6 4 -0.185445 39.041695 11.571966 23.821999 # Cd LIG
382 6 1 0.833564 36.335693 16.762966 23.021000 # Ca LIG
383 6 3 0.449622 40.362694 17.749968 20.778999 # Cc LIG
384 6 2 -0.116375 38.379692 12.527966 21.685999 # Cb LIG
385 6 4 -0.185445 38.308693 11.222966 21.167999 # Cd LIG
386 6 2 -0.116375 38.613693 10.092966 21.925999 # Cb LIG
387 6 4 -0.185445 42.341694 19.166967 20.991999 # Cd LIG
388 6 4 -0.185445 41.210693 18.590967 21.539000 # Cd LIG
389 6 1 0.833564 38.080696 13.628966 20.743999 # Ca LIG
390 6 3 0.449622 35.211693 16.617968 18.500999 # Cc LIG
391 6 2 -0.116375 40.726692 17.519966 19.410000 # Cb LIG
392 6 4 -0.185445 41.893692 18.109966 18.891998 # Cd LIG
393 6 2 -0.116375 42.714695 18.945967 19.647999 # Cb LIG
394 6 4 -0.185445 32.989693 17.610968 18.711998 # Cd LIG
395 6 4 -0.185445 34.056694 16.923967 19.259998 # Cd LIG
396 6 1 0.833564 39.924694 16.707966 18.467999 # Ca LIG
397 6 3 0.449622 24.326693 21.052965 17.924000 # Cc LIG
398 6 2 -0.116375 29.838696 20.152967 23.844999 # Cb LIG
399 6 4 -0.185445 31.001694 19.560966 17.532999 # Cd LIG
400 6 2 -0.116375 31.820694 18.719967 23.607998 # Cb LIG
401 6 4 -0.185445 22.107693 20.053967 17.712999 # Cd LIG
402 6 4 -0.185445 23.173693 20.742968 17.163998 # Cd LIG
403 6 1 0.833564 29.037693 20.970966 17.956999 # Ca LIG
404 6 3 0.449622 27.874695 24.947966 20.202000 # Cc LIG
405 6 2 -0.116375 24.343693 20.622967 19.292999 # Cb LIG
406 6 4 -0.185445 23.247694 19.909967 19.811998 # Cd LIG
407 6 2 -0.116375 22.111694 19.621965 19.056999 # Cb LIG
408 6 4 -0.185445 28.116695 27.369967 19.993000 # Cd LIG
409 6 4 -0.185445 28.184694 26.101965 19.443998 # Cd LIG
410 6 1 0.833564 25.449694 20.908966 20.233999 # Ca LIG
411 6 3 0.449622 29.473694 19.923967 22.475998 # Cc LIG
412 6 2 -0.116375 27.488693 25.146967 21.568998 # Cb LIG
413 6 4 -0.185445 27.412693 26.451967 22.087999 # Cd LIG
414 6 2 -0.116375 27.730694 27.581968 21.334000 # Cb LIG
415 6 4 -0.185445 31.447693 18.499968 22.264000 # Cd LIG
416 6 4 -0.185445 30.317696 19.078966 21.716000 # Cd LIG
417 6 1 0.833564 27.186693 24.045965 22.510998 # Ca LIG
418 6 10 -0.719651 28.378695 20.411966 21.870998 # Oc LIG
419 6 8 -0.731428 27.334694 22.825968 22.092999 # Oa LIG
420 6 9 -0.720115 29.429695 21.165966 19.148998 # Ob LIG
421 6 10 -0.719651 28.003695 23.755966 19.594999 # Oc LIG
422 6 8 -0.731428 26.434692 21.642965 19.815998 # Oa LIG
423 6 9 -0.720115 26.821693 24.286966 23.703999 # Ob LIG
424 6 10 -0.719651 25.296694 21.758966 17.319000 # Oc LIG
425 6 8 -0.731428 27.909695 21.456966 17.538998 # Oa LIG
426 6 9 -0.720115 25.422693 20.470966 21.426998 # Ob LIG
427 6 10 -0.719651 36.182693 15.914967 19.107998 # Oc LIG
428 6 8 -0.731428 38.794693 16.225965 18.884998 # Oa LIG
429 6 9 -0.720115 36.307693 17.200966 21.828999 # Ob LIG
430 6 10 -0.719651 38.888695 13.919967 23.660000 # Oc LIG
431 6 8 -0.731428 37.321693 16.030966 23.438999 # Oa LIG
432 6 9 -0.720115 37.714695 13.387966 19.550999 # Ob LIG
433 6 10 -0.719651 39.265694 17.265966 21.383999 # Oc LIG
434 6 8 -0.731428 38.228695 14.849966 21.160999 # Oa LIG
435 6 9 -0.720115 40.317696 16.510965 17.275999 # Ob LIG
436 6 6 0.130252 34.199120 18.099289 1.917000 # H LIG
437 6 6 0.130252 39.348885 11.726033 24.857998 # H LIG
438 6 6 0.130252 39.243118 9.456290 3.401000 # H LIG
439 6 6 0.130252 37.994888 11.123034 26.958998 # H LIG
440 6 6 0.130252 42.938118 19.852291 1.114000 # H LIG
441 6 6 0.130252 40.917118 18.802290 2.082000 # H LIG
442 6 6 0.130252 42.145885 17.883032 24.684998 # H LIG
443 6 6 0.130252 32.103886 17.790033 26.153997 # H LIG
444 6 6 0.130252 34.029884 16.574034 27.121998 # H LIG
445 6 6 0.130252 31.254887 19.791033 25.399998 # H LIG
446 6 6 0.130252 21.222885 19.877033 23.930998 # H LIG
447 6 6 0.130252 23.142117 21.103291 2.472000 # H LIG
448 6 6 0.130252 28.409885 28.229033 26.212997 # H LIG
449 6 6 0.130252 23.316116 19.588291 0.358000 # H LIG
450 6 6 0.130252 28.510887 25.954033 25.243998 # H LIG
451 6 6 0.130252 30.024117 18.889290 0.194000 # H LIG
452 6 6 0.130252 32.042118 17.832291 1.162000 # H LIG
453 6 6 0.130252 27.081118 26.564289 2.633000 # H LIG
454 6 7 1.286340 37.574886 14.820033 24.988998 # Ni LIG
455 6 7 1.286340 39.146118 15.685289 2.223000 # Ni LIG
456 6 7 1.286340 37.618885 16.613033 27.265999 # Ni LIG
457 6 7 1.286340 26.727118 21.074291 2.329000 # Ni LIG
458 6 7 1.286340 26.686886 22.862032 25.096998 # Ni LIG
459 6 7 1.286340 28.258118 22.011290 0.053000 # Ni LIG
460 6 3 0.449622 38.750118 12.738290 2.567000 # Cc LIG
461 6 2 -0.116375 35.228886 17.050034 23.961998 # Cb LIG
462 6 4 -0.185445 34.127117 17.766289 2.954000 # Cd LIG
463 6 2 -0.116375 32.994888 18.047033 24.198997 # Cb LIG
464 6 4 -0.185445 38.971115 10.315290 2.784000 # Cd LIG
465 6 4 -0.185445 39.038116 11.582290 3.332000 # Cd LIG
466 6 1 0.833564 36.332115 16.773291 2.531000 # Ca LIG
467 6 3 0.449622 40.359116 17.760290 0.289000 # Cc LIG
468 6 2 -0.116375 38.376118 12.538290 1.196000 # Cb LIG
469 6 4 -0.185445 38.305115 11.233290 0.678000 # Cd LIG
470 6 2 -0.116375 38.610115 10.103290 1.436000 # Cb LIG
471 6 4 -0.185445 42.338116 19.177290 0.502000 # Cd LIG
472 6 4 -0.185445 41.207115 18.601290 1.049001 # Cd LIG
473 6 1 0.833564 38.077118 13.639290 0.254000 # Ca LIG
474 6 3 0.449622 35.212887 16.620033 25.330997 # Cc LIG
475 6 2 -0.116375 40.727886 17.522032 26.239998 # Cb LIG
476 6 4 -0.185445 41.894886 18.112032 25.721998 # Cd LIG
477 6 2 -0.116375 42.715885 18.948034 26.477999 # Cb LIG
478 6 4 -0.185445 32.990887 17.613033 25.541998 # Cd LIG
479 6 4 -0.185445 34.057884 16.926033 26.089998 # Cd LIG
480 6 1 0.833564 39.925888 16.710033 25.297998 # Ca LIG
481 6 3 0.449622 24.327885 21.055033 24.753998 # Cc LIG
482 6 2 -0.116375 29.835117 20.163290 3.355000 # Cb LIG
483 6 4 -0.185445 31.002888 19.563032 24.362999 # Cd LIG
484 6 2 -0.116375 31.817118 18.730289 3.118000 # Cb LIG
485 6 4 -0.185445 22.108885 20.056032 24.542997 # Cd LIG
486 6 4 -0.185445 23.174885 20.745033 23.993998 # Cd LIG
487 6 1 0.833564 29.038887 20.973032 24.786999 # Ca LIG
488 6 3 0.449622 27.875885 24.950033 27.031998 # Cc LIG
489 6 2 -0.116375 24.344885 20.625032 26.122997 # Cb LIG
490 6 4 -0.185445 23.248886 19.912033 26.641998 # Cd LIG
491 6 2 -0.116375 22.112885 19.624033 25.886997 # Cb LIG
492 6 4 -0.185445 28.117886 27.372032 26.822998 # Cd LIG
493 6 4 -0.185445 28.185886 26.104033 26.273998 # Cd LIG
494 6 1 0.833564 25.450886 20.911032 27.063997 # Ca LIG
495 6 3 0.449622 29.470118 19.934290 1.986000 # Cc LIG
496 6 2 -0.116375 27.485117 25.157291 1.079000 # Cb LIG
497 6 4 -0.185445 27.409117 26.462290 1.598000 # Cd LIG
498 6 2 -0.116375 27.727116 27.592291 0.844000 # Cb LIG
499 6 4 -0.185445 31.444117 18.510290 1.774000 # Cd LIG
500 6 4 -0.185445 30.314117 19.089291 1.226000 # Cd LIG
501 6 1 0.833564 27.183117 24.056290 2.021000 # Ca LIG
502 6 10 -0.719651 28.375118 20.422291 1.381000 # Oc LIG
503 6 8 -0.731428 27.331118 22.836290 1.603000 # Oa LIG
504 6 9 -0.720115 29.430885 21.168032 25.978998 # Ob LIG
505 6 10 -0.719651 28.004887 23.758032 26.424997 # Oc LIG
506 6 8 -0.731428 26.435884 21.645033 26.645998 # Oa LIG
507 6 9 -0.720115 26.818117 24.297291 3.214000 # Ob LIG
508 6 10 -0.719651 25.297886 21.761034 24.148998 # Oc LIG
509 6 8 -0.731428 27.910887 21.459032 24.368998 # Oa LIG
510 6 9 -0.720115 25.419117 20.481289 0.937001 # Ob LIG
511 6 10 -0.719651 36.183887 15.917033 25.937998 # Oc LIG
512 6 8 -0.731428 38.795887 16.228033 25.714998 # Oa LIG
513 6 9 -0.720115 36.304115 17.211290 1.339000 # Ob LIG
514 6 10 -0.719651 38.885117 13.930290 3.170000 # Oc LIG
515 6 8 -0.731428 37.318115 16.041290 2.949000 # Oa LIG
516 6 9 -0.720115 37.715885 13.390033 26.380999 # Ob LIG
517 6 10 -0.719651 39.262115 17.276291 0.894000 # Oc LIG
518 6 8 -0.731428 38.225117 14.860291 0.671000 # Oa LIG
519 6 9 -0.720115 40.318886 16.513033 24.105999 # Ob LIG
520 6 6 0.130252 34.200310 18.101357 8.747000 # H LIG
521 6 6 0.130252 39.345310 11.736356 4.368000 # H LIG
522 6 6 0.130252 39.244308 9.458356 10.231000 # H LIG
523 6 6 0.130252 37.991310 11.133356 6.469000 # H LIG
524 6 6 0.130252 42.939308 19.854355 7.943999 # H LIG
525 6 6 0.130252 40.918308 18.804356 8.912000 # H LIG
526 6 6 0.130252 42.142311 17.893356 4.195000 # H LIG
527 6 6 0.130252 32.100311 17.800356 5.664000 # H LIG
528 6 6 0.130252 34.026310 16.584356 6.632000 # H LIG
529 6 6 0.130252 31.251308 19.801355 4.910000 # H LIG