LAMMPS data file. CGCMM style. atom_style full generated by VMD/TopoTools v1.5 on Mon Mar 06 09:08:26 PST 2017
 1490 atoms
 0 bonds
 0 angles
 0 dihedrals
 0 impropers
 10 atom types
 0 bond types
 0 angle types
 0 dihedral types
 0 improper types
 0.439550 26.456750  xlo xhi
 0.332838 45.395937  ylo yhi
 -0.278739 27.036740  zlo zhi

# Pair Coeffs
#
# 1  CH4
# 2  Ca
# 3  Cb
# 4  Cc
# 5  Cd
# 6  H
# 7  Ni
# 8  Oa
# 9  Ob
# 10  Oc

 Masses

 1 16.040001 # CH4
 2 12.011000 # Ca
 3 12.011000 # Cb
 4 12.011000 # Cc
 5 12.011000 # Cd
 6 1.008000 # H
 7 58.693001 # Ni
 8 15.999000 # Oa
 9 15.999000 # Ob
 10 15.999000 # Oc

 Atoms

1 1 1 0.000000 26.017300 45.062775 13.936001 # CH4 
2 1 1 0.000000 26.017300 45.062775 14.493001 # CH4 
3 1 1 0.000000 26.017300 45.062775 15.051001 # CH4 
4 1 1 0.000000 26.017300 45.062775 15.608001 # CH4 
5 1 1 0.000000 26.017300 45.062775 16.166000 # CH4 
6 1 1 0.000000 26.017300 45.062775 16.723000 # CH4 
7 1 1 0.000000 26.017300 45.062775 17.281000 # CH4 
8 1 1 0.000000 26.017300 45.062775 17.838001 # CH4 
9 1 1 0.000000 26.017300 45.062775 18.396000 # CH4 
10 1 1 0.000000 26.017300 45.062775 18.952999 # CH4 
11 1 1 0.000000 26.017300 45.062775 19.511002 # CH4 
12 1 1 0.000000 26.017300 45.062775 20.068001 # CH4 
13 1 1 0.000000 26.017300 45.062775 20.625000 # CH4 
14 1 1 0.000000 26.017300 45.062775 21.183001 # CH4 
15 1 1 0.000000 26.017300 45.062775 21.740002 # CH4 
16 1 1 0.000000 26.017300 45.062775 22.298000 # CH4 
17 1 1 0.000000 26.017300 45.062775 22.855000 # CH4 
18 1 1 0.000000 26.017300 45.062775 23.413000 # CH4 
19 1 1 0.000000 26.017300 45.062775 23.970001 # CH4 
20 1 1 0.000000 26.017300 45.062775 24.528000 # CH4 
21 1 1 0.000000 26.017300 45.062775 25.085001 # CH4 
22 1 1 0.000000 26.017300 45.062775 25.643000 # CH4 
23 1 1 0.000000 26.017300 45.062775 26.200001 # CH4 
24 1 1 0.000000 26.017300 45.062775 26.758001 # CH4 
25 1 1 0.000000 26.017300 45.062775 0.000000 # CH4 
26 1 1 0.000000 26.017300 45.062775 0.557000 # CH4 
27 1 1 0.000000 26.017300 45.062775 1.115000 # CH4 
28 1 1 0.000000 26.017300 45.062775 1.672000 # CH4 
29 1 1 0.000000 26.017300 45.062775 2.230000 # CH4 
30 1 1 0.000000 26.017300 45.062775 2.787000 # CH4 
31 1 1 0.000000 26.017300 45.062775 3.345000 # CH4 
32 1 1 0.000000 26.017300 45.062775 3.902000 # CH4 
33 1 1 0.000000 26.017300 45.062775 4.460000 # CH4 
34 1 1 0.000000 26.017300 45.062775 5.017000 # CH4 
35 1 1 0.000000 26.017300 45.062775 5.575000 # CH4 
36 1 1 0.000000 26.017300 45.062775 6.132000 # CH4 
37 1 1 0.000000 26.017300 45.062775 6.690000 # CH4 
38 1 1 0.000000 26.017300 45.062775 7.247000 # CH4 
39 1 1 0.000000 26.017300 45.062775 7.804000 # CH4 
40 1 1 0.000000 26.017300 45.062775 8.362000 # CH4 
41 1 1 0.000000 26.017300 45.062775 8.919000 # CH4 
42 1 1 0.000000 26.017300 45.062775 9.477000 # CH4 
43 1 1 0.000000 26.017300 45.062775 10.034000 # CH4 
44 1 1 0.000000 26.017300 45.062775 10.592000 # CH4 
45 1 1 0.000000 26.017300 45.062775 11.149000 # CH4 
46 1 1 0.000000 26.017300 45.062775 11.707000 # CH4 
47 1 1 0.000000 26.017300 45.062775 12.264000 # CH4 
48 1 1 0.000000 26.017300 45.062775 12.822000 # CH4 
49 1 1 0.000000 26.017300 45.062775 13.379000 # CH4 
50 1 1 0.000000 26.017300 22.531775 13.936001 # CH4 
51 1 1 0.000000 26.017300 22.531775 14.493001 # CH4 
52 1 1 0.000000 26.017300 22.531775 15.051001 # CH4 
53 1 1 0.000000 26.017300 22.531775 15.608001 # CH4 
54 1 1 0.000000 26.017300 22.531775 16.166000 # CH4 
55 1 1 0.000000 26.017300 22.531775 16.723000 # CH4 
56 1 1 0.000000 26.017300 22.531775 17.281000 # CH4 
57 1 1 0.000000 26.017300 22.531775 17.838001 # CH4 
58 1 1 0.000000 26.017300 22.531775 18.396000 # CH4 
59 1 1 0.000000 26.017300 22.531775 18.952999 # CH4 
60 1 1 0.000000 26.017300 22.531775 19.511002 # CH4 
61 1 1 0.000000 26.017300 22.531775 20.068001 # CH4 
62 1 1 0.000000 26.017300 22.531775 20.625000 # CH4 
63 1 1 0.000000 26.017300 22.531775 21.183001 # CH4 
64 1 1 0.000000 26.017300 22.531775 21.740002 # CH4 
65 1 1 0.000000 26.017300 22.531775 22.298000 # CH4 
66 1 1 0.000000 26.017300 22.531775 22.855000 # CH4 
67 1 1 0.000000 26.017300 22.531775 23.413000 # CH4 
68 1 1 0.000000 26.017300 22.531775 23.970001 # CH4 
69 1 1 0.000000 26.017300 22.531775 24.528000 # CH4 
70 1 1 0.000000 26.017300 22.531775 25.085001 # CH4 
71 1 1 0.000000 26.017300 22.531775 25.643000 # CH4 
72 1 1 0.000000 26.017300 22.531775 26.200001 # CH4 
73 1 1 0.000000 26.017300 22.531775 26.758001 # CH4 
74 1 1 0.000000 26.017300 22.531775 0.000000 # CH4 
75 1 1 0.000000 26.017300 22.531775 0.557000 # CH4 
76 1 1 0.000000 26.017300 22.531775 1.115000 # CH4 
77 1 1 0.000000 26.017300 22.531775 1.672000 # CH4 
78 1 1 0.000000 26.017300 22.531775 2.230000 # CH4 
79 1 1 0.000000 26.017300 22.531775 2.787000 # CH4 
80 1 1 0.000000 26.017300 22.531775 3.345000 # CH4 
81 1 1 0.000000 26.017300 22.531775 3.902000 # CH4 
82 1 1 0.000000 26.017300 22.531775 4.460000 # CH4 
83 1 1 0.000000 26.017300 22.531775 5.017000 # CH4 
84 1 1 0.000000 26.017300 22.531775 5.575000 # CH4 
85 1 1 0.000000 26.017300 22.531775 6.132000 # CH4 
86 1 1 0.000000 26.017300 22.531775 6.690000 # CH4 
87 1 1 0.000000 26.017300 22.531775 7.247000 # CH4 
88 1 1 0.000000 26.017300 22.531775 7.804000 # CH4 
89 1 1 0.000000 26.017300 22.531775 8.362000 # CH4 
90 1 1 0.000000 26.017300 22.531775 8.919000 # CH4 
91 1 1 0.000000 26.017300 22.531775 9.477000 # CH4 
92 1 1 0.000000 26.017300 22.531775 10.034000 # CH4 
93 1 1 0.000000 26.017300 22.531775 10.592000 # CH4 
94 1 1 0.000000 26.017300 22.531775 11.149000 # CH4 
95 1 1 0.000000 26.017300 22.531775 11.707000 # CH4 
96 1 1 0.000000 26.017300 22.531775 12.264000 # CH4 
97 1 1 0.000000 26.017300 22.531775 12.822000 # CH4 
98 1 1 0.000000 26.017300 22.531775 13.379000 # CH4 
99 1 1 0.000000 13.008301 45.062775 13.936001 # CH4 
100 1 1 0.000000 13.008301 45.062775 14.493001 # CH4 
101 1 1 0.000000 13.008301 45.062775 15.051001 # CH4 
102 1 1 0.000000 13.008301 45.062775 15.608001 # CH4 
103 1 1 0.000000 13.008301 45.062775 16.166000 # CH4 
104 1 1 0.000000 13.008301 45.062775 16.723000 # CH4 
105 1 1 0.000000 13.008301 45.062775 17.281000 # CH4 
106 1 1 0.000000 13.008301 45.062775 17.838001 # CH4 
107 1 1 0.000000 13.008301 45.062775 18.396000 # CH4 
108 1 1 0.000000 13.008301 45.062775 18.952999 # CH4 
109 1 1 0.000000 13.008301 45.062775 19.511002 # CH4 
110 1 1 0.000000 13.008301 45.062775 20.068001 # CH4 
111 1 1 0.000000 13.008301 45.062775 20.625000 # CH4 
112 1 1 0.000000 13.008301 45.062775 21.183001 # CH4 
113 1 1 0.000000 13.008301 45.062775 21.740002 # CH4 
114 1 1 0.000000 13.008301 45.062775 22.298000 # CH4 
115 1 1 0.000000 13.008301 45.062775 22.855000 # CH4 
116 1 1 0.000000 13.008301 45.062775 23.413000 # CH4 
117 1 1 0.000000 13.008301 45.062775 23.970001 # CH4 
118 1 1 0.000000 13.008301 45.062775 24.528000 # CH4 
119 1 1 0.000000 13.008301 45.062775 25.085001 # CH4 
120 1 1 0.000000 13.008301 45.062775 25.643000 # CH4 
121 1 1 0.000000 13.008301 45.062775 26.200001 # CH4 
122 1 1 0.000000 13.008301 45.062775 26.758001 # CH4 
123 1 1 0.000000 13.008301 45.062775 0.000000 # CH4 
124 1 1 0.000000 13.008301 45.062775 0.557000 # CH4 
125 1 1 0.000000 13.008301 45.062775 1.115000 # CH4 
126 1 1 0.000000 13.008301 45.062775 1.672000 # CH4 
127 1 1 0.000000 13.008301 45.062775 2.230000 # CH4 
128 1 1 0.000000 13.008301 45.062775 2.787000 # CH4 
129 1 1 0.000000 13.008301 45.062775 3.345000 # CH4 
130 1 1 0.000000 13.008301 45.062775 3.902000 # CH4 
131 1 1 0.000000 13.008301 45.062775 4.460000 # CH4 
132 1 1 0.000000 13.008301 45.062775 5.017000 # CH4 
133 1 1 0.000000 13.008301 45.062775 5.575000 # CH4 
134 1 1 0.000000 13.008301 45.062775 6.132000 # CH4 
135 1 1 0.000000 13.008301 45.062775 6.690000 # CH4 
136 1 1 0.000000 13.008301 45.062775 7.247000 # CH4 
137 1 1 0.000000 13.008301 45.062775 7.804000 # CH4 
138 1 1 0.000000 13.008301 45.062775 8.362000 # CH4 
139 1 1 0.000000 13.008301 45.062775 8.919000 # CH4 
140 1 1 0.000000 13.008301 45.062775 9.477000 # CH4 
141 1 1 0.000000 13.008301 45.062775 10.034000 # CH4 
142 1 1 0.000000 13.008301 45.062775 10.592000 # CH4 
143 1 1 0.000000 13.008301 45.062775 11.149000 # CH4 
144 1 1 0.000000 13.008301 45.062775 11.707000 # CH4 
145 1 1 0.000000 13.008301 45.062775 12.264000 # CH4 
146 1 1 0.000000 13.008301 45.062775 12.822000 # CH4 
147 1 1 0.000000 13.008301 45.062775 13.379000 # CH4 
148 1 1 0.000000 13.008301 22.531775 13.936001 # CH4 
149 1 1 0.000000 13.008301 22.531775 14.493001 # CH4 
150 1 1 0.000000 13.008301 22.531775 15.051001 # CH4 
151 1 1 0.000000 13.008301 22.531775 15.608001 # CH4 
152 1 1 0.000000 13.008301 22.531775 16.166000 # CH4 
153 1 1 0.000000 13.008301 22.531775 16.723000 # CH4 
154 1 1 0.000000 13.008301 22.531775 17.281000 # CH4 
155 1 1 0.000000 13.008301 22.531775 17.838001 # CH4 
156 1 1 0.000000 13.008301 22.531775 18.396000 # CH4 
157 1 1 0.000000 13.008301 22.531775 18.952999 # CH4 
158 1 1 0.000000 13.008301 22.531775 19.511002 # CH4 
159 1 1 0.000000 13.008301 22.531775 20.068001 # CH4 
160 1 1 0.000000 13.008301 22.531775 20.625000 # CH4 
161 1 1 0.000000 13.008301 22.531775 21.183001 # CH4 
162 1 1 0.000000 13.008301 22.531775 21.740002 # CH4 
163 1 1 0.000000 13.008301 22.531775 22.298000 # CH4 
164 1 1 0.000000 13.008301 22.531775 22.855000 # CH4 
165 1 1 0.000000 13.008301 22.531775 23.413000 # CH4 
166 1 1 0.000000 13.008301 22.531775 23.970001 # CH4 
167 1 1 0.000000 13.008301 22.531775 24.528000 # CH4 
168 1 1 0.000000 13.008301 22.531775 25.085001 # CH4 
169 1 1 0.000000 13.008301 22.531775 25.643000 # CH4 
170 1 1 0.000000 13.008301 22.531775 26.200001 # CH4 
171 1 1 0.000000 13.008301 22.531775 26.758001 # CH4 
172 1 1 0.000000 13.008301 22.531775 0.000000 # CH4 
173 1 1 0.000000 13.008301 22.531775 0.557000 # CH4 
174 1 1 0.000000 13.008301 22.531775 1.115000 # CH4 
175 1 1 0.000000 13.008301 22.531775 1.672000 # CH4 
176 1 1 0.000000 13.008301 22.531775 2.230000 # CH4 
177 1 1 0.000000 13.008301 22.531775 2.787000 # CH4 
178 1 1 0.000000 13.008301 22.531775 3.345000 # CH4 
179 1 1 0.000000 13.008301 22.531775 3.902000 # CH4 
180 1 1 0.000000 13.008301 22.531775 4.460000 # CH4 
181 1 1 0.000000 13.008301 22.531775 5.017000 # CH4 
182 1 1 0.000000 13.008301 22.531775 5.575000 # CH4 
183 1 1 0.000000 13.008301 22.531775 6.132000 # CH4 
184 1 1 0.000000 13.008301 22.531775 6.690000 # CH4 
185 1 1 0.000000 13.008301 22.531775 7.247000 # CH4 
186 1 1 0.000000 13.008301 22.531775 7.804000 # CH4 
187 1 1 0.000000 13.008301 22.531775 8.362000 # CH4 
188 1 1 0.000000 13.008301 22.531775 8.919000 # CH4 
189 1 1 0.000000 13.008301 22.531775 9.477000 # CH4 
190 1 1 0.000000 13.008301 22.531775 10.034000 # CH4 
191 1 1 0.000000 13.008301 22.531775 10.592000 # CH4 
192 1 1 0.000000 13.008301 22.531775 11.149000 # CH4 
193 1 1 0.000000 13.008301 22.531775 11.707000 # CH4 
194 1 1 0.000000 13.008301 22.531775 12.264000 # CH4 
195 1 9 0.000000 23.941000 21.823999 20.945980 # Ob LIG
196 2 9 0.000000 10.932000 44.355999 20.945980 # Ob LIG
197 3 9 0.000000 23.941000 6.803000 23.221979 # Ob LIG
198 4 9 0.000000 10.932000 29.334000 23.221979 # Ob LIG
199 5 10 0.000000 23.514999 7.995000 20.491980 # Oc LIG
200 6 10 0.000000 10.506000 30.527000 20.491980 # Oc LIG
201 1 8 0.000000 22.554001 7.442000 18.022980 # Oa LIG
202 2 8 0.000000 9.546000 29.973000 18.022980 # Oa LIG
203 1 8 0.000000 22.554001 22.462999 22.575979 # Oa LIG
204 2 8 0.000000 9.546000 44.993999 22.575979 # Oa LIG
205 3 8 0.000000 21.304001 8.301000 22.575979 # Oa LIG
206 4 8 0.000000 8.295000 30.833000 22.575979 # Oa LIG
207 3 9 0.000000 21.164000 9.821000 20.945980 # Ob LIG
208 4 9 0.000000 8.155000 32.353001 20.945980 # Ob LIG
209 7 10 0.000000 21.184000 20.701000 20.491980 # Oc LIG
210 8 10 0.000000 8.176000 43.233002 20.491980 # Oc LIG
211 3 8 0.000000 21.184999 21.809999 18.022980 # Oa LIG
212 2 8 0.000000 8.176000 44.341000 18.022980 # Oa LIG
213 1 9 0.000000 19.938000 20.927999 23.221979 # Ob LIG
214 2 9 0.000000 6.930000 43.459999 23.221979 # Ob LIG
215 9 9 0.000000 19.087999 16.624001 22.302979 # Ob LIG
216 10 9 0.000000 6.079000 39.155998 22.302979 # Ob LIG
217 11 10 0.000000 18.681999 13.676000 22.756979 # Oc LIG
218 12 10 0.000000 5.673000 36.207001 22.756979 # Oc LIG
219 9 8 0.000000 17.841000 15.743000 20.672979 # Oa LIG
220 10 8 0.000000 4.833000 38.275002 20.672979 # Oa LIG
221 13 10 0.000000 17.841999 16.851000 18.204979 # Oc LIG
222 14 10 0.000000 4.833000 39.382999 18.204979 # Oc LIG
223 15 10 0.000000 10.506000 0.485000 18.214979 # Oc LIG
224 4 10 0.000000 23.514999 23.017000 18.214979 # Oc LIG
225 16 10 0.000000 10.506000 15.506000 22.767979 # Oc LIG
226 17 10 0.000000 23.514999 38.036999 22.767979 # Oc LIG
227 18 9 0.000000 10.932000 14.313000 18.668980 # Ob LIG
228 19 9 0.000000 23.941000 36.845001 18.668980 # Ob LIG
229 20 9 0.000000 15.085000 0.708000 20.026979 # Ob LIG
230 21 9 0.000000 2.076000 23.239000 20.026979 # Ob LIG
231 22 9 0.000000 15.085000 15.729000 17.750980 # Ob LIG
232 23 9 0.000000 2.077000 38.259998 17.750980 # Ob LIG
233 24 10 0.000000 15.511000 14.536000 20.480980 # Oc LIG
234 25 10 0.000000 2.503000 37.068001 20.480980 # Oc LIG
235 5 8 0.000000 16.471001 15.090000 22.948978 # Oa LIG
236 6 8 0.000000 3.463000 37.620998 22.948978 # Oa LIG
237 20 8 0.000000 16.471001 0.069000 18.396980 # Oa LIG
238 21 8 0.000000 3.463000 22.601000 18.396980 # Oa LIG
239 22 8 0.000000 17.722000 14.230000 18.396980 # Oa LIG
240 23 8 0.000000 4.713000 36.762001 18.396980 # Oa LIG
241 22 9 0.000000 17.862000 12.710000 20.026979 # Ob LIG
242 23 9 0.000000 4.853000 35.242001 20.026979 # Ob LIG
243 26 10 0.000000 17.841000 1.831000 20.480980 # Oc LIG
244 27 10 0.000000 4.833000 24.362000 20.480980 # Oc LIG
245 20 8 0.000000 17.841000 0.722000 22.948978 # Oa LIG
246 28 8 0.000000 4.833000 23.254000 22.948978 # Oa LIG
247 20 9 0.000000 19.087000 1.603000 17.750980 # Ob LIG
248 21 9 0.000000 6.079000 24.135000 17.750980 # Ob LIG
249 28 9 0.000000 19.938000 5.907000 18.668980 # Ob LIG
250 28 9 0.000000 6.930000 28.438999 18.668980 # Ob LIG
251 28 9 0.000000 2.076000 8.218000 22.302979 # Ob LIG
252 28 9 0.000000 15.085000 30.750000 22.302979 # Ob LIG
253 28 10 0.000000 2.503000 7.026000 18.204979 # Oc LIG
254 28 10 0.000000 15.511000 29.556999 18.204979 # Oc LIG
255 28 10 0.000000 2.503000 22.047001 22.756979 # Oc LIG
256 28 10 0.000000 15.511000 44.577999 22.756979 # Oc LIG
257 28 10 0.000000 20.344000 8.856000 18.215981 # Oc LIG
258 28 10 0.000000 7.336000 31.388000 18.215981 # Oc LIG
259 28 8 0.000000 21.184999 6.789000 20.299980 # Oa LIG
260 28 8 0.000000 8.176000 29.320000 20.299980 # Oa LIG
261 28 10 0.000000 21.184000 5.680000 22.767979 # Oc LIG
262 28 10 0.000000 8.176000 28.212000 22.767979 # Oc LIG
263 28 8 0.000000 3.463000 7.579000 20.672979 # Oa LIG
264 28 8 0.000000 16.471001 30.111000 20.672979 # Oa LIG
265 28 8 0.000000 4.713000 6.720000 22.948978 # Oa LIG
266 28 8 0.000000 17.722000 29.250999 22.948978 # Oa LIG
267 28 8 0.000000 4.713000 21.740999 20.672979 # Oa LIG
268 28 8 0.000000 17.722000 44.271999 20.672979 # Oa LIG
269 28 9 0.000000 4.853000 5.200000 17.750980 # Ob LIG
270 28 9 0.000000 17.862000 27.731001 17.750980 # Ob LIG
271 28 9 0.000000 4.853000 20.221001 22.302979 # Ob LIG
272 28 9 0.000000 17.862000 42.751999 22.302979 # Ob LIG
273 28 10 0.000000 4.833000 9.341000 22.756979 # Oc LIG
274 28 10 0.000000 17.841000 31.872999 22.756979 # Oc LIG
275 28 8 0.000000 4.833000 8.232000 18.396980 # Oa LIG
276 28 8 0.000000 17.841000 30.764000 18.396980 # Oa LIG
277 28 10 0.000000 5.673000 6.165000 20.480980 # Oc LIG
278 28 10 0.000000 18.681999 28.697001 20.480980 # Oc LIG
279 28 10 0.000000 5.673000 21.186001 18.204979 # Oc LIG
280 28 10 0.000000 18.681000 43.717999 18.204979 # Oc LIG
281 28 9 0.000000 6.079000 9.114000 20.026979 # Ob LIG
282 28 9 0.000000 19.087000 31.645000 20.026979 # Ob LIG
283 28 9 0.000000 6.930000 13.418000 20.945980 # Ob LIG
284 28 9 0.000000 19.938000 35.949001 20.945980 # Ob LIG
285 28 10 0.000000 7.336000 1.345000 22.767979 # Oc LIG
286 28 10 0.000000 20.344000 23.877001 22.767979 # Oc LIG
287 28 10 0.000000 7.336000 16.365999 20.491980 # Oc LIG
288 28 10 0.000000 20.344000 38.897999 20.491980 # Oc LIG
289 28 8 0.000000 8.176000 14.299000 22.575979 # Oa LIG
290 28 8 0.000000 21.184999 36.831001 22.575979 # Oa LIG
291 28 10 0.000000 8.176000 13.190000 18.214979 # Oc LIG
292 28 10 0.000000 21.184000 35.722000 18.214979 # Oc LIG
293 28 9 0.000000 8.155000 2.311000 18.668980 # Ob LIG
294 28 9 0.000000 21.164000 24.841999 18.668980 # Ob LIG
295 28 9 0.000000 8.155000 17.332001 23.221979 # Ob LIG
296 28 9 0.000000 21.164000 39.862999 23.221979 # Ob LIG
297 28 8 0.000000 8.296000 0.791000 20.299980 # Oa LIG
298 28 8 0.000000 21.304001 23.322001 20.299980 # Oa LIG
299 28 8 0.000000 8.295000 15.812000 18.022980 # Oa LIG
300 28 8 0.000000 21.304001 38.342999 18.022980 # Oa LIG
301 18 8 0.000000 9.546000 14.952000 20.299980 # Oa LIG
302 19 8 0.000000 22.554001 37.484001 20.299980 # Oa LIG
303 5 5 0.000000 25.868000 7.878000 20.672979 # Cd LIG
304 6 5 0.000000 12.860000 30.409000 20.672979 # Cd LIG
305 5 3 0.000000 24.879999 7.373000 18.527981 # Cb LIG
306 28 3 0.000000 11.871000 29.905001 18.527981 # Cb LIG
307 1 3 0.000000 24.879999 22.393999 23.080978 # Cb LIG
308 28 3 0.000000 11.871000 44.925999 23.080978 # Cb LIG
309 5 4 0.000000 24.708000 7.749000 19.900980 # Cc LIG
310 6 4 0.000000 11.699000 30.280001 19.900980 # Cc LIG
311 1 2 0.000000 23.745001 22.209999 22.137980 # Ca LIG
312 2 2 0.000000 10.736000 44.741001 22.137980 # Ca LIG
313 1 2 0.000000 23.745001 7.188000 17.585979 # Ca LIG
314 2 2 0.000000 10.736000 29.719999 17.585979 # Ca LIG
315 3 2 0.000000 20.927999 9.459000 22.137980 # Ca LIG
316 4 2 0.000000 7.919000 31.990999 22.137980 # Ca LIG
317 7 4 0.000000 20.374001 19.791000 19.900980 # Cc LIG
318 8 4 0.000000 7.365000 42.323002 19.900980 # Cc LIG
319 3 2 0.000000 20.370001 20.905001 17.585979 # Ca LIG
320 2 2 0.000000 7.361000 43.437000 17.585979 # Ca LIG
321 11 3 0.000000 20.201000 10.350000 23.080978 # Cb LIG
322 12 3 0.000000 7.192000 32.881001 23.080978 # Cb LIG
323 13 3 0.000000 19.962999 19.830000 18.527981 # Cb LIG
324 14 3 0.000000 6.954000 42.362000 18.527981 # Cb LIG
325 7 5 0.000000 19.905001 18.722000 20.672979 # Cd LIG
326 8 5 0.000000 6.897000 41.252998 20.672979 # Cd LIG
327 11 5 0.000000 19.757000 11.578000 22.575979 # Cd LIG
328 12 5 0.000000 6.749000 34.110001 22.575979 # Cd LIG
329 13 5 0.000000 19.120001 18.830999 18.022980 # Cd LIG
330 14 5 0.000000 6.112000 41.362999 18.022980 # Cd LIG
331 7 3 0.000000 19.063000 17.723000 20.167980 # Cb LIG
332 8 3 0.000000 6.055000 40.254002 20.167980 # Cb LIG
333 11 4 0.000000 19.065001 12.519000 23.347980 # Cc LIG
334 12 4 0.000000 6.056000 35.050999 23.347980 # Cc LIG
335 9 2 0.000000 18.656000 16.646999 21.110979 # Ca LIG
336 10 2 0.000000 5.647000 39.179001 21.110979 # Ca LIG
337 13 4 0.000000 18.652000 17.761000 18.795979 # Cc LIG
338 14 4 0.000000 5.643000 40.292999 18.795979 # Cc LIG
339 28 5 0.000000 0.149000 7.143000 18.022980 # Cd LIG
340 28 5 0.000000 13.157000 29.674999 18.022980 # Cd LIG
341 28 5 0.000000 0.149000 22.164000 22.575979 # Cd LIG
342 28 5 0.000000 13.157000 44.695999 22.575979 # Cd LIG
343 28 3 0.000000 1.137000 7.648000 20.167980 # Cb LIG
344 6 3 0.000000 14.146000 30.179001 20.167980 # Cb LIG
345 28 4 0.000000 1.309000 22.292999 23.347980 # Cc LIG
346 28 4 0.000000 14.318000 44.825001 23.347980 # Cc LIG
347 28 4 0.000000 1.309000 7.272000 18.795979 # Cc LIG
348 28 4 0.000000 14.318000 29.804001 18.795979 # Cc LIG
349 18 2 0.000000 10.736000 14.699000 19.861980 # Ca LIG
350 19 2 0.000000 23.745001 37.230000 19.861980 # Ca LIG
351 16 4 0.000000 11.699000 15.259000 22.176979 # Cc LIG
352 17 4 0.000000 24.708000 37.791000 22.176979 # Cc LIG
353 15 4 0.000000 11.699000 0.238000 17.624979 # Cc LIG
354 4 4 0.000000 24.708000 22.770000 17.624979 # Cc LIG
355 24 3 0.000000 11.871000 14.884000 20.804979 # Cb LIG
356 17 3 0.000000 24.879999 37.415001 20.804979 # Cb LIG
357 15 5 0.000000 12.860000 0.367000 18.396980 # Cd LIG
358 4 5 0.000000 25.868999 22.899000 18.396980 # Cd LIG
359 16 5 0.000000 12.860000 15.388000 22.949980 # Cd LIG
360 17 5 0.000000 25.868000 37.919998 22.949980 # Cd LIG
361 24 5 0.000000 13.157000 14.654000 20.299980 # Cd LIG
362 25 5 0.000000 0.149000 37.185001 20.299980 # Cd LIG
363 16 3 0.000000 14.146000 15.158000 22.443979 # Cb LIG
364 25 3 0.000000 1.137000 37.689999 22.443979 # Cb LIG
365 15 3 0.000000 14.146000 0.137000 17.891979 # Cb LIG
366 21 3 0.000000 1.137000 22.669001 17.891979 # Cb LIG
367 24 4 0.000000 14.318000 14.783000 21.071980 # Cc LIG
368 25 4 0.000000 1.309000 37.313999 21.071980 # Cc LIG
369 20 2 0.000000 15.281000 0.322000 18.834980 # Ca LIG
370 21 2 0.000000 2.272000 22.854000 18.834980 # Ca LIG
371 5 2 0.000000 15.281000 15.343000 23.386980 # Ca LIG
372 6 2 0.000000 2.272000 37.875000 23.386980 # Ca LIG
373 22 2 0.000000 18.098000 13.072000 18.833981 # Ca LIG
374 23 2 0.000000 5.089000 35.604000 18.833981 # Ca LIG
375 26 4 0.000000 18.652000 2.740000 21.071980 # Cc LIG
376 27 4 0.000000 5.643000 25.271999 21.071980 # Cc LIG
377 20 2 0.000000 18.656000 1.626000 23.386980 # Ca LIG
378 28 2 0.000000 5.647000 24.158001 23.386980 # Ca LIG
379 28 3 0.000000 18.825001 12.182000 17.891979 # Cb LIG
380 28 3 0.000000 5.816000 34.714001 17.891979 # Cb LIG
381 28 3 0.000000 19.063000 2.701000 22.443979 # Cb LIG
382 28 3 0.000000 6.055000 25.233000 22.443979 # Cb LIG
383 26 5 0.000000 19.120001 3.810000 20.299980 # Cd LIG
384 27 5 0.000000 6.111000 26.341999 20.299980 # Cd LIG
385 28 5 0.000000 19.268999 10.953000 18.396980 # Cd LIG
386 28 5 0.000000 6.260000 33.485001 18.396980 # Cd LIG
387 28 5 0.000000 19.906000 3.700000 22.948978 # Cd LIG
388 28 5 0.000000 6.897000 26.232000 22.948978 # Cd LIG
389 28 2 0.000000 2.272000 7.833000 21.110979 # Ca LIG
390 28 2 0.000000 15.281000 30.364000 21.110979 # Ca LIG
391 26 3 0.000000 19.962000 4.809000 20.804979 # Cb LIG
392 27 3 0.000000 6.954000 27.341000 20.804979 # Cb LIG
393 28 4 0.000000 19.961000 10.013000 17.624979 # Cc LIG
394 28 4 0.000000 6.953000 32.543999 17.624979 # Cc LIG
395 28 2 0.000000 20.370001 5.884000 19.861980 # Ca LIG
396 28 2 0.000000 7.361000 28.416000 19.861980 # Ca LIG
397 28 4 0.000000 20.374001 4.770000 22.176979 # Cc LIG
398 28 4 0.000000 7.366000 27.302000 22.176979 # Cc LIG
399 28 2 0.000000 5.089000 5.562000 23.386980 # Ca LIG
400 28 2 0.000000 18.098000 28.093000 23.386980 # Ca LIG
401 28 2 0.000000 5.089000 20.583000 21.110979 # Ca LIG
402 28 2 0.000000 18.098000 43.115002 21.110979 # Ca LIG
403 28 4 0.000000 5.643000 10.251000 23.347980 # Cc LIG
404 28 4 0.000000 18.652000 32.783001 23.347980 # Cc LIG
405 28 2 0.000000 5.647000 9.137000 18.834980 # Ca LIG
406 28 2 0.000000 18.656000 31.667999 18.834980 # Ca LIG
407 28 3 0.000000 5.816000 4.671000 22.443979 # Cb LIG
408 28 3 0.000000 18.825001 27.202999 22.443979 # Cb LIG
409 28 3 0.000000 5.817000 19.693001 20.167980 # Cb LIG
410 28 3 0.000000 18.825001 42.223999 20.167980 # Cb LIG
411 28 4 0.000000 6.056000 5.008000 21.071980 # Cc LIG
412 28 4 0.000000 19.065001 27.540001 21.071980 # Cc LIG
413 28 4 0.000000 6.056000 20.028999 18.795979 # Cc LIG
414 28 4 0.000000 19.063999 42.561001 18.795979 # Cc LIG
415 28 3 0.000000 6.055000 10.212000 17.891979 # Cb LIG
416 28 3 0.000000 19.063000 32.743000 17.891979 # Cb LIG
417 28 5 0.000000 6.111000 11.321000 22.575979 # Cd LIG
418 28 5 0.000000 19.120001 33.852001 22.575979 # Cd LIG
419 28 5 0.000000 6.260000 3.443000 22.948978 # Cd LIG
420 28 5 0.000000 19.268999 25.974001 22.948978 # Cd LIG
421 28 5 0.000000 6.261000 18.464001 20.672979 # Cd LIG
422 28 5 0.000000 19.268999 40.994999 20.672979 # Cd LIG
423 28 5 0.000000 6.748000 4.068000 20.299980 # Cd LIG
424 28 5 0.000000 19.757000 26.599001 20.299980 # Cd LIG
425 28 5 0.000000 6.748000 19.089001 18.022980 # Cd LIG
426 28 5 0.000000 19.757000 41.619999 18.022980 # Cd LIG
427 28 5 0.000000 6.897000 11.211000 18.396980 # Cd LIG
428 28 5 0.000000 19.906000 33.742001 18.396980 # Cd LIG
429 28 3 0.000000 6.954000 12.320000 23.080978 # Cb LIG
430 28 3 0.000000 19.962000 34.851002 23.080978 # Cb LIG
431 28 4 0.000000 6.953000 2.502000 22.176979 # Cc LIG
432 28 4 0.000000 19.961000 25.034000 22.176979 # Cc LIG
433 28 4 0.000000 6.953000 17.523001 19.900980 # Cc LIG
434 28 4 0.000000 19.961000 40.055000 19.900980 # Cc LIG
435 28 3 0.000000 7.192000 2.839000 20.804979 # Cb LIG
436 28 3 0.000000 20.201000 25.371000 20.804979 # Cb LIG
437 28 3 0.000000 7.192000 17.860001 18.527981 # Cb LIG
438 28 3 0.000000 20.201000 40.390999 18.527981 # Cb LIG
439 28 2 0.000000 7.361000 13.395000 22.137980 # Ca LIG
440 28 2 0.000000 20.370001 35.925999 22.137980 # Ca LIG
441 28 4 0.000000 7.366000 12.281000 17.624979 # Cc LIG
442 28 4 0.000000 20.374001 34.812000 17.624979 # Cc LIG
443 28 2 0.000000 7.919000 1.949000 19.861980 # Ca LIG
444 28 2 0.000000 20.927999 24.480000 19.861980 # Ca LIG
445 28 2 0.000000 7.919000 16.969999 17.585979 # Ca LIG
446 28 2 0.000000 20.927999 39.500999 17.585979 # Ca LIG
447 5 6 0.000000 25.764999 8.173000 21.715981 # H LIG
448 6 6 0.000000 12.756000 30.704000 21.715981 # H LIG
449 7 6 0.000000 20.212999 18.664000 21.715981 # H LIG
450 8 6 0.000000 7.204000 41.195999 21.715981 # H LIG
451 11 6 0.000000 19.961000 11.816000 21.532980 # H LIG
452 12 6 0.000000 6.952000 34.347000 21.532980 # H LIG
453 29 6 0.000000 18.813000 18.889000 23.808979 # H LIG
454 30 6 0.000000 5.805000 41.419998 23.808979 # H LIG
455 31 6 0.000000 0.252000 6.849000 23.808979 # H LIG
456 32 6 0.000000 13.261000 29.379999 23.808979 # H LIG
457 28 6 0.000000 0.252000 21.870001 21.532980 # H LIG
458 28 6 0.000000 13.261000 44.401001 21.532980 # H LIG
459 15 6 0.000000 12.756000 0.662000 19.439980 # H LIG
460 4 6 0.000000 25.764999 23.194000 19.439980 # H LIG
461 33 6 0.000000 12.756000 15.683000 17.163979 # H LIG
462 34 6 0.000000 25.764999 38.215000 17.163979 # H LIG
463 24 6 0.000000 13.261000 14.359000 19.255980 # H LIG
464 25 6 0.000000 0.252000 36.890999 19.255980 # H LIG
465 26 6 0.000000 18.813000 3.868000 19.256979 # H LIG
466 27 6 0.000000 5.804000 26.399000 19.256979 # H LIG
467 28 6 0.000000 19.065001 10.716000 19.439980 # H LIG
468 28 6 0.000000 6.057000 33.248001 19.439980 # H LIG
469 35 6 0.000000 20.212999 3.643000 17.163979 # H LIG
470 36 6 0.000000 7.204000 26.174000 17.163979 # H LIG
471 28 6 0.000000 5.804000 11.378000 21.532980 # H LIG
472 28 6 0.000000 18.813000 33.910000 21.532980 # H LIG
473 37 6 0.000000 6.057000 3.205000 17.163979 # H LIG
474 38 6 0.000000 19.065001 25.737000 17.163979 # H LIG
475 28 6 0.000000 6.057000 18.226999 21.715981 # H LIG
476 28 6 0.000000 19.066000 40.757999 21.715981 # H LIG
477 28 6 0.000000 6.952000 4.305000 19.256979 # H LIG
478 28 6 0.000000 19.959999 26.837000 19.256979 # H LIG
479 39 6 0.000000 6.951000 19.326000 23.808979 # H LIG
480 40 6 0.000000 19.959999 41.856998 23.808979 # H LIG
481 28 6 0.000000 7.204000 11.153000 19.439980 # H LIG
482 28 6 0.000000 20.212999 33.685001 19.439980 # H LIG
483 28 7 0.000000 22.488001 21.886000 19.548981 # Ni LIG
484 2 7 0.000000 9.479000 44.417999 19.548981 # Ni LIG
485 1 7 0.000000 20.719000 22.156000 21.825979 # Ni LIG
486 2 7 0.000000 7.710000 44.687000 21.825979 # Ni LIG
487 41 7 0.000000 8.828000 1.021000 17.272980 # Ni LIG
488 3 7 0.000000 21.837000 23.552999 17.272980 # Ni LIG
489 20 7 0.000000 16.538000 0.645000 21.423981 # Ni LIG
490 28 7 0.000000 3.529000 23.177000 21.423981 # Ni LIG
491 20 7 0.000000 18.306999 0.376000 19.147980 # Ni LIG
492 21 7 0.000000 5.299000 22.908001 19.147980 # Ni LIG
493 28 7 0.000000 4.181000 21.510000 23.699980 # Ni LIG
494 42 7 0.000000 17.188999 44.042000 23.699980 # Ni LIG
495 3 7 0.000000 22.488001 6.865000 21.824980 # Ni LIG
496 4 7 0.000000 9.479000 29.396999 21.824980 # Ni LIG
497 28 7 0.000000 21.837000 8.532000 19.548981 # Ni LIG
498 28 7 0.000000 8.828000 31.063000 19.548981 # Ni LIG
499 1 7 0.000000 20.718000 7.135000 17.272980 # Ni LIG
500 2 7 0.000000 7.710000 29.666000 17.272980 # Ni LIG
501 28 7 0.000000 3.529000 8.156000 23.699980 # Ni LIG
502 28 7 0.000000 16.538000 30.688000 23.699980 # Ni LIG
503 28 7 0.000000 4.180000 6.489000 19.147980 # Ni LIG
504 28 7 0.000000 17.188999 29.021000 19.147980 # Ni LIG
505 28 7 0.000000 5.299000 7.886000 21.423981 # Ni LIG
506 28 7 0.000000 18.306999 30.417999 21.423981 # Ni LIG
507 18 7 0.000000 7.710000 14.645000 19.548981 # Ni LIG
508 19 7 0.000000 20.719000 37.176998 19.548981 # Ni LIG
509 28 7 0.000000 8.828000 16.042000 21.824980 # Ni LIG
510 28 7 0.000000 21.837000 38.574001 21.824980 # Ni LIG
511 28 7 0.000000 9.479000 14.375000 17.272980 # Ni LIG
512 28 7 0.000000 22.488001 36.907001 17.272980 # Ni LIG
513 5 7 0.000000 18.306999 15.397000 23.699980 # Ni LIG
514 6 7 0.000000 5.299000 37.929001 23.699980 # Ni LIG
515 22 7 0.000000 16.538000 15.666000 19.146980 # Ni LIG
516 23 7 0.000000 3.529000 38.198002 19.146980 # Ni LIG
517 9 7 0.000000 17.188999 14.000000 21.423981 # Ni LIG
518 10 7 0.000000 4.180000 36.530998 21.423981 # Ni LIG
519 1 9 0.000000 23.941000 21.823999 0.459500 # Ob LIG
520 2 9 0.000000 10.932000 44.355999 0.459500 # Ob LIG
521 3 9 0.000000 23.941000 6.803000 2.735500 # Ob LIG
522 4 9 0.000000 10.932000 29.334000 2.735500 # Ob LIG
523 5 10 0.000000 23.514999 7.995000 0.005500 # Oc LIG
524 6 10 0.000000 10.506000 30.527000 0.005500 # Oc LIG
525 1 8 0.000000 22.554001 7.442000 24.851978 # Oa LIG
526 2 8 0.000000 9.546000 29.973000 24.851978 # Oa LIG
527 1 8 0.000000 22.554001 22.462999 2.089500 # Oa LIG
528 2 8 0.000000 9.546000 44.993999 2.089500 # Oa LIG
529 3 8 0.000000 21.304001 8.301000 2.089500 # Oa LIG
530 4 8 0.000000 8.295000 30.833000 2.089500 # Oa LIG
531 3 9 0.000000 21.164000 9.821000 0.459500 # Ob LIG
532 4 9 0.000000 8.155000 32.353001 0.459500 # Ob LIG
533 7 10 0.000000 21.184000 20.701000 0.005500 # Oc LIG
534 8 10 0.000000 8.176000 43.233002 0.005500 # Oc LIG