LAMMPS data file. CGCMM style. atom_style full generated by VMD/TopoTools v1.5 on Tue May 02 12:05:21 PDT 2017
 1360 atoms
 0 bonds
 0 angles
 0 dihedrals
 0 impropers
 10 atom types
 0 bond types
 0 angle types
 0 dihedral types
 0 improper types
 0.444700 26.558700  xlo xhi
 0.314250 45.544250  ylo yhi
 -0.000021 27.666979  zlo zhi

# Pair Coeffs
#
# 1  CH4
# 2  Ca
# 3  Cb
# 4  Cc
# 5  Cd
# 6  H
# 7  Mg
# 8  Oa
# 9  Ob
# 10  Oc

 Masses

 1 16.040001 # CH4
 2 12.011000 # Ca
 3 12.011000 # Cb
 4 12.011000 # Cc
 5 12.011000 # Cd
 6 1.008000 # H
 7 24.305000 # Mg
 8 15.999000 # Oa
 9 15.999000 # Ob
 10 15.999000 # Oc

 Atoms

1 1 1 0.000000 26.114401 45.230499 14.698000 # CH4 
2 2 1 0.000000 26.114401 45.230499 16.427000 # CH4 
3 3 1 0.000000 26.114401 45.230499 18.156000 # CH4 
4 4 1 0.000000 26.114401 45.230499 19.886000 # CH4 
5 5 1 0.000000 26.114401 45.230499 21.615000 # CH4 
6 6 1 0.000000 26.114401 45.230499 23.344000 # CH4 
7 7 1 0.000000 26.114401 45.230499 25.073000 # CH4 
8 8 1 0.000000 26.114401 45.230499 26.802000 # CH4 
9 9 1 0.000000 26.114401 45.230499 0.865000 # CH4 
10 10 1 0.000000 26.114401 45.230499 2.594000 # CH4 
11 11 1 0.000000 26.114401 45.230499 4.323000 # CH4 
12 12 1 0.000000 26.114401 45.230499 6.052000 # CH4 
13 13 1 0.000000 26.114401 45.230499 7.781000 # CH4 
14 14 1 0.000000 26.114401 45.230499 9.511000 # CH4 
15 15 1 0.000000 26.114401 45.230499 11.240000 # CH4 
16 16 1 0.000000 26.114401 45.230499 12.969000 # CH4 
17 17 1 0.000000 26.114401 22.614500 14.698000 # CH4 
18 18 1 0.000000 26.114401 22.614500 16.427000 # CH4 
19 19 1 0.000000 26.114401 22.614500 18.156000 # CH4 
20 20 1 0.000000 26.114401 22.614500 19.886000 # CH4 
21 21 1 0.000000 26.114401 22.614500 21.615000 # CH4 
22 22 1 0.000000 26.114401 22.614500 23.344000 # CH4 
23 23 1 0.000000 26.114401 22.614500 25.073000 # CH4 
24 24 1 0.000000 26.114401 22.614500 26.802000 # CH4 
25 25 1 0.000000 26.114401 22.614500 0.865000 # CH4 
26 26 1 0.000000 26.114401 22.614500 2.594000 # CH4 
27 27 1 0.000000 26.114401 22.614500 4.323000 # CH4 
28 28 1 0.000000 26.114401 22.614500 6.052000 # CH4 
29 29 1 0.000000 26.114401 22.614500 7.781000 # CH4 
30 30 1 0.000000 26.114401 22.614500 9.511000 # CH4 
31 31 1 0.000000 26.114401 22.614500 11.240000 # CH4 
32 32 1 0.000000 26.114401 22.614500 12.969000 # CH4 
33 33 1 0.000000 13.056400 45.230499 14.698000 # CH4 
34 34 1 0.000000 13.056400 45.230499 16.427000 # CH4 
35 35 1 0.000000 13.056400 45.230499 18.156000 # CH4 
36 36 1 0.000000 13.056400 45.230499 19.886000 # CH4 
37 37 1 0.000000 13.056400 45.230499 21.615000 # CH4 
38 38 1 0.000000 13.056400 45.230499 23.344000 # CH4 
39 39 1 0.000000 13.056400 45.230499 25.073000 # CH4 
40 40 1 0.000000 13.056400 45.230499 26.802000 # CH4 
41 41 1 0.000000 13.056400 45.230499 0.865000 # CH4 
42 42 1 0.000000 13.056400 45.230499 2.594000 # CH4 
43 43 1 0.000000 13.056400 45.230499 4.323000 # CH4 
44 44 1 0.000000 13.056400 45.230499 6.052000 # CH4 
45 45 1 0.000000 13.056400 45.230499 7.781000 # CH4 
46 46 1 0.000000 13.056400 45.230499 9.511000 # CH4 
47 47 1 0.000000 13.056400 45.230499 11.240000 # CH4 
48 48 1 0.000000 13.056400 45.230499 12.969000 # CH4 
49 49 1 0.000000 13.056400 22.614500 14.698000 # CH4 
50 50 1 0.000000 13.056400 22.614500 16.427000 # CH4 
51 51 1 0.000000 13.056400 22.614500 18.156000 # CH4 
52 52 1 0.000000 13.056400 22.614500 19.886000 # CH4 
53 53 1 0.000000 13.056400 22.614500 21.615000 # CH4 
54 54 1 0.000000 13.056400 22.614500 23.344000 # CH4 
55 55 1 0.000000 13.056400 22.614500 25.073000 # CH4 
56 56 1 0.000000 13.056400 22.614500 26.802000 # CH4 
57 57 1 0.000000 13.056400 22.614500 0.865000 # CH4 
58 58 1 0.000000 13.056400 22.614500 2.594000 # CH4 
59 59 1 0.000000 13.056400 22.614500 4.323000 # CH4 
60 60 1 0.000000 13.056400 22.614500 6.052000 # CH4 
61 61 1 0.000000 13.056400 22.614500 7.781000 # CH4 
62 62 1 0.000000 13.056400 22.614500 9.511000 # CH4 
63 63 1 0.000000 13.056400 22.614500 11.240000 # CH4 
64 64 1 0.000000 13.056400 22.614500 12.969000 # CH4 
65 65 7 0.000000 5.314000 7.966000 21.684460 # Mg LIG
66 65 7 0.000000 18.371000 30.580999 21.684460 # Mg LIG
67 65 7 0.000000 4.242000 6.491000 19.378460 # Mg LIG
68 65 7 0.000000 17.299000 29.106001 19.378460 # Mg LIG
69 65 7 0.000000 3.501000 8.158000 23.990459 # Mg LIG
70 65 7 0.000000 16.558001 30.773001 23.990459 # Mg LIG
71 65 7 0.000000 7.743000 14.649000 19.815460 # Mg LIG
72 65 7 0.000000 20.799000 37.264000 19.815460 # Mg LIG
73 65 7 0.000000 8.815000 16.124001 22.120461 # Mg LIG
74 65 7 0.000000 21.872000 38.738998 22.120461 # Mg LIG
75 65 7 0.000000 9.556000 14.457000 17.509460 # Mg LIG
76 65 7 0.000000 22.613001 37.071999 17.509460 # Mg LIG
77 65 7 0.000000 8.815000 31.200001 19.815460 # Mg LIG
78 65 7 0.000000 21.872000 8.585000 19.815460 # Mg LIG
79 65 7 0.000000 9.556000 29.534000 22.120461 # Mg LIG
80 65 7 0.000000 22.613001 6.919000 22.120461 # Mg LIG
81 65 7 0.000000 4.242000 21.568001 23.990459 # Mg LIG
82 65 7 0.000000 17.299000 44.182999 23.990459 # Mg LIG
83 65 7 0.000000 8.815000 1.047000 17.509460 # Mg LIG
84 65 7 0.000000 21.872000 23.662001 17.509460 # Mg LIG
85 65 7 0.000000 5.314000 38.118999 23.990459 # Mg LIG
86 65 7 0.000000 18.371000 15.504000 23.990459 # Mg LIG
87 65 7 0.000000 7.743000 44.801998 22.120461 # Mg LIG
88 65 7 0.000000 20.799000 22.187000 22.120461 # Mg LIG
89 65 7 0.000000 9.556000 44.611000 19.815460 # Mg LIG
90 65 7 0.000000 22.613001 21.996000 19.815460 # Mg LIG
91 65 7 0.000000 3.501000 38.311001 19.378460 # Mg LIG
92 65 7 0.000000 16.558001 15.696000 19.378460 # Mg LIG
93 65 7 0.000000 4.242000 36.645000 21.684460 # Mg LIG
94 65 7 0.000000 17.299000 14.030000 21.684460 # Mg LIG
95 65 7 0.000000 5.314000 23.042999 19.378460 # Mg LIG
96 65 7 0.000000 18.371000 0.428000 19.378460 # Mg LIG
97 65 7 0.000000 3.501000 23.233999 21.684460 # Mg LIG
98 65 7 0.000000 16.558001 0.619000 21.684460 # Mg LIG
99 65 7 0.000000 7.743000 29.726000 17.509460 # Mg LIG
100 65 7 0.000000 20.799000 7.111000 17.509460 # Mg LIG
101 65 2 0.000000 5.704000 9.170000 19.055460 # Ca LIG
102 65 2 0.000000 18.761000 31.785000 19.055460 # Ca LIG
103 65 3 0.000000 6.098000 10.247000 18.115459 # Cb LIG
104 65 3 0.000000 19.155001 32.862000 18.115459 # Cb LIG
105 65 5 0.000000 6.932000 11.258000 18.610460 # Cd LIG
106 65 5 0.000000 19.989000 33.873001 18.610460 # Cd LIG
107 65 6 0.000000 7.248000 11.206000 19.650459 # H LIG
108 65 6 0.000000 20.305000 33.820999 19.650459 # H LIG
109 65 9 0.000000 6.149000 9.140000 20.245461 # Ob LIG
110 65 9 0.000000 19.205999 31.754999 20.245461 # Ob LIG
111 65 8 0.000000 4.881000 8.269000 18.627460 # Oa LIG
112 65 8 0.000000 17.938000 30.884001 18.627460 # Oa LIG
113 65 10 0.000000 8.183000 13.257000 18.410460 # Oc LIG
114 65 10 0.000000 21.240000 35.872002 18.410460 # Oc LIG
115 65 8 0.000000 4.721000 6.715000 23.238461 # Oa LIG
116 65 8 0.000000 17.777000 29.330000 23.238461 # Oa LIG
117 65 8 0.000000 3.455000 7.631000 20.933460 # Oa LIG
118 65 8 0.000000 16.511000 30.246000 20.933460 # Oa LIG
119 65 10 0.000000 4.874000 9.358000 23.088459 # Oc LIG
120 65 10 0.000000 17.930000 31.973000 23.088459 # Oc LIG
121 65 10 0.000000 5.668000 6.177000 20.783461 # Oc LIG
122 65 10 0.000000 18.725000 28.792000 20.783461 # Oc LIG
123 65 4 0.000000 5.672000 10.284000 23.664459 # Cc LIG
124 65 4 0.000000 18.729000 32.898998 23.664459 # Cc LIG
125 65 2 0.000000 7.353000 13.445000 22.444460 # Ca LIG
126 65 2 0.000000 20.409000 36.060001 22.444460 # Ca LIG
127 65 3 0.000000 6.959000 12.368000 23.384460 # Cb LIG
128 65 3 0.000000 20.016001 34.983002 23.384460 # Cb LIG
129 65 4 0.000000 7.384000 12.331000 17.835461 # Cc LIG
130 65 4 0.000000 20.441000 34.945999 17.835461 # Cc LIG
131 65 5 0.000000 6.125000 11.357000 22.889460 # Cd LIG
132 65 5 0.000000 19.181000 33.972000 22.889460 # Cd LIG
133 65 6 0.000000 5.809000 11.409000 21.849461 # H LIG
134 65 6 0.000000 18.865999 34.023998 21.849461 # H LIG
135 65 9 0.000000 6.908000 13.475000 21.254459 # Ob LIG
136 65 9 0.000000 19.965000 36.090000 21.254459 # Ob LIG
137 65 8 0.000000 8.175000 14.346000 22.871460 # Oa LIG
138 65 8 0.000000 21.232000 36.960999 22.871460 # Oa LIG
139 65 8 0.000000 8.336000 15.900000 18.260460 # Oa LIG
140 65 8 0.000000 21.393000 38.514999 18.260460 # Oa LIG
141 65 8 0.000000 9.602000 14.984000 20.566460 # Oa LIG
142 65 8 0.000000 22.659000 37.598999 20.566460 # Oa LIG
143 65 10 0.000000 7.389000 16.438000 20.716461 # Oc LIG
144 65 10 0.000000 20.445999 39.053001 20.716461 # Oc LIG
145 65 8 0.000000 9.602000 30.059999 18.260460 # Oa LIG
146 65 8 0.000000 22.659000 7.445000 18.260460 # Oa LIG
147 65 8 0.000000 8.336000 30.976999 22.871460 # Oa LIG
148 65 8 0.000000 21.393000 8.362000 22.871460 # Oa LIG
149 65 8 0.000000 4.721000 21.791000 20.933460 # Oa LIG
150 65 8 0.000000 17.777000 44.405998 20.933460 # Oa LIG
151 65 10 0.000000 5.668000 21.254000 18.477459 # Oc LIG
152 65 10 0.000000 18.725000 43.868999 18.477459 # Oc LIG
153 65 8 0.000000 8.336000 0.824000 20.566460 # Oa LIG
154 65 8 0.000000 21.393000 23.438999 20.566460 # Oa LIG
155 65 10 0.000000 7.389000 1.361000 23.021460 # Oc LIG
156 65 10 0.000000 20.445999 23.976000 23.021460 # Oc LIG
157 65 10 0.000000 4.874000 39.512001 18.477459 # Oc LIG
158 65 10 0.000000 17.930000 16.896999 18.477459 # Oc LIG
159 65 2 0.000000 5.704000 39.324001 21.360460 # Ca LIG
160 65 2 0.000000 18.761000 16.709000 21.360460 # Ca LIG
161 65 3 0.000000 6.098000 40.401001 20.421459 # Cb LIG
162 65 3 0.000000 19.155001 17.785999 20.421459 # Cb LIG
163 65 4 0.000000 5.672000 40.438000 19.053459 # Cc LIG
164 65 4 0.000000 18.729000 17.823000 19.053459 # Cc LIG
165 65 5 0.000000 6.932000 41.410999 20.916460 # Cd LIG
166 65 5 0.000000 19.989000 18.796000 20.916460 # Cd LIG
167 65 6 0.000000 7.248000 41.359001 21.955460 # H LIG
168 65 6 0.000000 20.305000 18.743999 21.955460 # H LIG
169 65 9 0.000000 6.149000 39.292999 22.550461 # Ob LIG
170 65 9 0.000000 19.205999 16.677999 22.550461 # Ob LIG
171 65 8 0.000000 4.882000 38.423000 20.933460 # Oa LIG
172 65 8 0.000000 17.938000 15.808000 20.933460 # Oa LIG
173 65 3 0.000000 6.959000 42.521000 18.773460 # Cb LIG
174 65 3 0.000000 20.016001 19.906000 18.773460 # Cb LIG
175 65 4 0.000000 7.384000 42.484001 20.140461 # Cc LIG
176 65 4 0.000000 20.441000 19.868999 20.140461 # Cc LIG
177 65 5 0.000000 6.125000 41.509998 18.277460 # Cd LIG
178 65 5 0.000000 19.181000 18.895000 18.277460 # Cd LIG
179 65 8 0.000000 8.175000 44.499001 18.260460 # Oa LIG
180 65 8 0.000000 21.232000 21.884001 18.260460 # Oa LIG
181 65 10 0.000000 8.183000 43.410000 20.716461 # Oc LIG
182 65 10 0.000000 21.240000 20.795000 20.716461 # Oc LIG
183 65 10 0.000000 5.668000 36.330002 23.088459 # Oc LIG
184 65 10 0.000000 18.725000 13.715000 23.088459 # Oc LIG
185 65 2 0.000000 7.353000 43.598000 17.833460 # Ca LIG
186 65 2 0.000000 20.409000 20.983000 17.833460 # Ca LIG
187 65 9 0.000000 6.908000 43.627998 23.559460 # Ob LIG
188 65 9 0.000000 19.965000 21.013000 23.559460 # Ob LIG
189 65 8 0.000000 9.602000 45.137001 22.871460 # Oa LIG
190 65 8 0.000000 22.659000 22.521999 22.871460 # Oa LIG
191 65 8 0.000000 4.721000 36.868000 18.627460 # Oa LIG
192 65 8 0.000000 17.778000 14.253000 18.627460 # Oa LIG
193 65 8 0.000000 3.455000 37.785000 23.238461 # Oa LIG
194 65 8 0.000000 16.511000 15.170000 23.238461 # Oa LIG
195 65 10 0.000000 2.515000 22.156000 23.088459 # Oc LIG
196 65 10 0.000000 15.572000 44.771000 23.088459 # Oc LIG
197 65 4 0.000000 1.314000 22.385000 23.664459 # Cc LIG
198 65 4 0.000000 14.371000 45.000000 23.664459 # Cc LIG
199 65 2 0.000000 10.794000 44.875000 22.444460 # Ca LIG
200 65 2 0.000000 23.851000 22.260000 22.444460 # Ca LIG
201 65 3 0.000000 11.924000 45.073002 23.384460 # Cb LIG
202 65 3 0.000000 24.980000 22.458000 23.384460 # Cb LIG
203 65 5 0.000000 0.159000 22.240999 22.889460 # Cd LIG
204 65 5 0.000000 13.216000 44.855999 22.889460 # Cd LIG
205 65 6 0.000000 0.271000 21.941000 21.849461 # H LIG
206 65 6 0.000000 13.328000 44.556000 21.849461 # H LIG
207 65 9 0.000000 10.990000 44.474998 21.254459 # Ob LIG
208 65 9 0.000000 24.047001 21.860001 21.254459 # Ob LIG
209 65 4 0.000000 6.070000 35.174999 23.664459 # Cc LIG
210 65 4 0.000000 19.127001 12.560000 23.664459 # Cc LIG
211 65 2 0.000000 7.967000 32.139999 22.444460 # Ca LIG
212 65 2 0.000000 21.024000 9.525000 22.444460 # Ca LIG
213 65 3 0.000000 7.231000 33.020000 23.384460 # Cb LIG
214 65 3 0.000000 20.288000 10.405000 23.384460 # Cb LIG
215 65 5 0.000000 6.773000 34.248001 22.889460 # Cd LIG
216 65 5 0.000000 19.830000 11.633000 22.889460 # Cd LIG
217 65 6 0.000000 6.977000 34.494999 21.849461 # H LIG
218 65 6 0.000000 20.033001 11.880000 21.849461 # H LIG
219 65 9 0.000000 8.216000 32.509998 21.254459 # Ob LIG
220 65 9 0.000000 21.273001 9.895000 21.254459 # Ob LIG
221 65 10 0.000000 10.541000 30.612000 20.716461 # Oc LIG
222 65 10 0.000000 23.598000 7.997000 20.716461 # Oc LIG
223 65 2 0.000000 5.090000 35.705002 19.055460 # Ca LIG
224 65 2 0.000000 18.146000 13.090000 19.055460 # Ca LIG
225 65 3 0.000000 5.826000 34.825001 18.115459 # Cb LIG
226 65 3 0.000000 18.882000 12.210000 18.115459 # Cb LIG
227 65 5 0.000000 6.284000 33.597000 18.610460 # Cd LIG
228 65 5 0.000000 19.341000 10.982000 18.610460 # Cd LIG
229 65 6 0.000000 6.080000 33.349998 19.650459 # H LIG
230 65 6 0.000000 19.136999 10.735000 19.650459 # H LIG
231 65 9 0.000000 4.841000 35.334999 20.245461 # Ob LIG
232 65 9 0.000000 17.898001 12.720000 20.245461 # Ob LIG
233 65 10 0.000000 2.515000 37.233002 20.783461 # Oc LIG
234 65 10 0.000000 15.572000 14.618000 20.783461 # Oc LIG
235 65 9 0.000000 2.067000 38.446999 17.939461 # Ob LIG
236 65 9 0.000000 15.124000 15.832000 17.939461 # Ob LIG
237 65 2 0.000000 2.263000 38.046001 23.666460 # Ca LIG
238 65 2 0.000000 15.320000 15.431000 23.666460 # Ca LIG
239 65 3 0.000000 1.133000 37.848999 22.726460 # Cb LIG
240 65 3 0.000000 14.190000 15.234000 22.726460 # Cb LIG
241 65 4 0.000000 1.314000 37.462002 21.358459 # Cc LIG
242 65 4 0.000000 14.371000 14.847000 21.358459 # Cc LIG
243 65 5 0.000000 12.898000 15.451000 23.221460 # Cd LIG
244 65 5 0.000000 25.954000 38.066002 23.221460 # Cd LIG
245 65 6 0.000000 12.785000 15.751000 17.344460 # H LIG
246 65 6 0.000000 25.841999 38.366001 17.344460 # H LIG
247 65 2 0.000000 10.794000 14.722000 20.138460 # Ca LIG
248 65 2 0.000000 23.851000 37.337002 20.138460 # Ca LIG
249 65 3 0.000000 11.924000 14.919000 21.078461 # Cb LIG
250 65 3 0.000000 24.980000 37.534000 21.078461 # Cb LIG
251 65 4 0.000000 11.743000 15.306000 22.446461 # Cc LIG
252 65 4 0.000000 24.799000 37.921001 22.446461 # Cc LIG
253 65 5 0.000000 0.159000 37.317001 20.583460 # Cd LIG
254 65 5 0.000000 13.216000 14.702000 20.583460 # Cd LIG
255 65 6 0.000000 0.272000 37.016998 19.543461 # H LIG
256 65 6 0.000000 13.328000 14.402000 19.543461 # H LIG
257 65 9 0.000000 10.990000 14.322000 18.948460 # Ob LIG
258 65 9 0.000000 24.047001 36.937000 18.948460 # Ob LIG
259 65 10 0.000000 10.541000 15.535000 23.021460 # Oc LIG
260 65 10 0.000000 23.598000 38.150002 23.021460 # Oc LIG
261 65 9 0.000000 4.841000 5.182000 17.939461 # Ob LIG
262 65 9 0.000000 17.898001 27.797001 17.939461 # Ob LIG
263 65 10 0.000000 2.515000 7.080000 18.477459 # Oc LIG
264 65 10 0.000000 15.572000 29.695000 18.477459 # Oc LIG
265 65 2 0.000000 5.090000 5.552000 23.666460 # Ca LIG
266 65 2 0.000000 18.146000 28.167000 23.666460 # Ca LIG
267 65 3 0.000000 5.826000 4.672000 22.726460 # Cb LIG
268 65 3 0.000000 18.882000 27.287001 22.726460 # Cb LIG
269 65 4 0.000000 6.070000 5.022000 21.358459 # Cc LIG
270 65 4 0.000000 19.127001 27.636999 21.358459 # Cc LIG
271 65 5 0.000000 6.284000 3.444000 23.221460 # Cd LIG
272 65 5 0.000000 19.340000 26.059000 23.221460 # Cd LIG
273 65 6 0.000000 6.080000 3.197000 17.344460 # H LIG
274 65 6 0.000000 19.136999 25.812000 17.344460 # H LIG
275 65 2 0.000000 7.967000 1.987000 20.138460 # Ca LIG
276 65 2 0.000000 21.024000 24.601999 20.138460 # Ca LIG
277 65 3 0.000000 7.231000 2.866000 21.078461 # Cb LIG
278 65 3 0.000000 20.288000 25.481001 21.078461 # Cb LIG
279 65 4 0.000000 6.987000 2.516000 22.446461 # Cc LIG
280 65 4 0.000000 20.042999 25.131001 22.446461 # Cc LIG
281 65 5 0.000000 6.773000 4.094000 20.583460 # Cd LIG
282 65 5 0.000000 19.830000 26.709000 20.583460 # Cd LIG
283 65 6 0.000000 6.977000 4.341000 19.543461 # H LIG
284 65 6 0.000000 20.033001 26.955999 19.543461 # H LIG
285 65 9 0.000000 8.216000 2.357000 18.948460 # Ob LIG
286 65 9 0.000000 21.273001 24.972000 18.948460 # Ob LIG
287 65 2 0.000000 2.263000 7.893000 21.360460 # Ca LIG
288 65 2 0.000000 15.320000 30.507999 21.360460 # Ca LIG
289 65 3 0.000000 1.133000 7.696000 20.421459 # Cb LIG
290 65 3 0.000000 14.190000 30.311001 20.421459 # Cb LIG
291 65 4 0.000000 1.314000 7.309000 19.053459 # Cc LIG
292 65 4 0.000000 14.371000 29.924000 19.053459 # Cc LIG
293 65 5 0.000000 12.898000 30.528000 20.916460 # Cd LIG
294 65 5 0.000000 25.954000 7.913000 20.916460 # Cd LIG
295 65 6 0.000000 12.785000 30.827999 21.955460 # H LIG
296 65 6 0.000000 25.841999 8.213000 21.955460 # H LIG
297 65 9 0.000000 2.067000 8.293000 22.550461 # Ob LIG
298 65 9 0.000000 15.124000 30.908001 22.550461 # Ob LIG
299 65 3 0.000000 11.924000 29.996000 18.773460 # Cb LIG
300 65 3 0.000000 24.980000 7.381000 18.773460 # Cb LIG
301 65 4 0.000000 11.743000 30.382999 20.140461 # Cc LIG
302 65 4 0.000000 24.799000 7.768000 20.140461 # Cc LIG
303 65 5 0.000000 0.159000 7.164000 18.277460 # Cd LIG
304 65 5 0.000000 13.216000 29.778999 18.277460 # Cd LIG
305 65 2 0.000000 10.794000 29.799000 17.833460 # Ca LIG
306 65 2 0.000000 23.851000 7.184000 17.833460 # Ca LIG
307 65 9 0.000000 10.990000 29.398001 23.559460 # Ob LIG
308 65 9 0.000000 24.047001 6.783000 23.559460 # Ob LIG
309 65 2 0.000000 5.090000 20.628000 21.360460 # Ca LIG
310 65 2 0.000000 18.146000 43.243000 21.360460 # Ca LIG
311 65 3 0.000000 5.826000 19.749001 20.421459 # Cb LIG
312 65 3 0.000000 18.882000 42.363998 20.421459 # Cb LIG
313 65 4 0.000000 6.070000 20.099001 19.053459 # Cc LIG
314 65 4 0.000000 19.127001 42.714001 19.053459 # Cc LIG
315 65 5 0.000000 6.284000 18.521000 20.916460 # Cd LIG
316 65 5 0.000000 19.341000 41.136002 20.916460 # Cd LIG
317 65 6 0.000000 6.080000 18.274000 21.955460 # H LIG
318 65 6 0.000000 19.136999 40.889000 21.955460 # H LIG
319 65 9 0.000000 4.841000 20.257999 22.550461 # Ob LIG
320 65 9 0.000000 17.898001 42.873001 22.550461 # Ob LIG
321 65 3 0.000000 7.231000 17.943001 18.773460 # Cb LIG
322 65 3 0.000000 20.288000 40.557999 18.773460 # Cb LIG
323 65 4 0.000000 6.987000 17.593000 20.140461 # Cc LIG
324 65 4 0.000000 20.042999 40.208000 20.140461 # Cc LIG
325 65 5 0.000000 6.773000 19.171000 18.277460 # Cd LIG
326 65 5 0.000000 19.830000 41.785999 18.277460 # Cd LIG
327 65 2 0.000000 7.967000 17.063000 17.833460 # Ca LIG
328 65 2 0.000000 21.024000 39.678001 17.833460 # Ca LIG
329 65 9 0.000000 8.216000 17.433001 23.559460 # Ob LIG
330 65 9 0.000000 21.273001 40.048000 23.559460 # Ob LIG
331 65 9 0.000000 6.149000 24.216999 17.939461 # Ob LIG
332 65 9 0.000000 19.205999 1.602000 17.939461 # Ob LIG
333 65 8 0.000000 3.455000 22.708000 18.627460 # Oa LIG
334 65 8 0.000000 16.511000 0.093000 18.627460 # Oa LIG
335 65 10 0.000000 4.874000 24.434999 20.783461 # Oc LIG
336 65 10 0.000000 17.930000 1.820000 20.783461 # Oc LIG
337 65 2 0.000000 5.704000 24.247000 23.666460 # Ca LIG
338 65 2 0.000000 18.761000 1.632000 23.666460 # Ca LIG
339 65 3 0.000000 6.098000 25.323999 22.726460 # Cb LIG
340 65 3 0.000000 19.155001 2.709000 22.726460 # Cb LIG
341 65 4 0.000000 5.672000 25.361000 21.358459 # Cc LIG
342 65 4 0.000000 18.729000 2.746000 21.358459 # Cc LIG
343 65 5 0.000000 6.932000 26.334999 23.221460 # Cd LIG
344 65 5 0.000000 19.989000 3.720000 23.221460 # Cd LIG
345 65 6 0.000000 7.248000 26.282000 17.344460 # H LIG
346 65 6 0.000000 20.305000 3.667000 17.344460 # H LIG
347 65 8 0.000000 4.881000 23.346001 23.238461 # Oa LIG
348 65 8 0.000000 17.938000 0.731000 23.238461 # Oa LIG
349 65 2 0.000000 7.353000 28.521000 20.138460 # Ca LIG
350 65 2 0.000000 20.409000 5.906000 20.138460 # Ca LIG
351 65 3 0.000000 6.959000 27.444000 21.078461 # Cb LIG
352 65 3 0.000000 20.016001 4.829000 21.078461 # Cb LIG
353 65 4 0.000000 7.384000 27.407000 22.446461 # Cc LIG
354 65 4 0.000000 20.441000 4.792000 22.446461 # Cc LIG
355 65 5 0.000000 6.125000 26.434000 20.583460 # Cd LIG
356 65 5 0.000000 19.181000 3.819000 20.583460 # Cd LIG
357 65 6 0.000000 5.809000 26.486000 19.543461 # H LIG
358 65 6 0.000000 18.865999 3.871000 19.543461 # H LIG
359 65 9 0.000000 6.908000 28.552000 18.948460 # Ob LIG
360 65 9 0.000000 19.965000 5.937000 18.948460 # Ob LIG
361 65 8 0.000000 8.175000 29.422001 20.566460 # Oa LIG
362 65 8 0.000000 21.232000 6.807000 20.566460 # Oa LIG
363 65 10 0.000000 8.183000 28.333000 23.021460 # Oc LIG
364 65 10 0.000000 21.240000 5.718000 23.021460 # Oc LIG
365 65 2 0.000000 2.263000 22.969999 19.055460 # Ca LIG
366 65 2 0.000000 15.320000 0.355000 19.055460 # Ca LIG
367 65 3 0.000000 1.133000 22.771999 18.115459 # Cb LIG
368 65 3 0.000000 14.190000 0.157000 18.115459 # Cb LIG
369 65 5 0.000000 12.898000 0.374000 18.610460 # Cd LIG
370 65 5 0.000000 25.954000 22.989000 18.610460 # Cd LIG
371 65 6 0.000000 12.785000 0.674000 19.650459 # H LIG
372 65 6 0.000000 25.841999 23.289000 19.650459 # H LIG
373 65 9 0.000000 2.067000 23.370001 20.245461 # Ob LIG
374 65 9 0.000000 15.124000 0.755000 20.245461 # Ob LIG
375 65 10 0.000000 7.389000 31.514999 18.410460 # Oc LIG
376 65 10 0.000000 20.445999 8.900000 18.410460 # Oc LIG
377 65 6 0.000000 5.809000 41.563000 24.154461 # H LIG
378 65 6 0.000000 18.865999 18.948000 24.154461 # H LIG
379 65 10 0.000000 10.541000 0.459000 18.410460 # Oc LIG
380 65 10 0.000000 23.598000 23.073999 18.410460 # Oc LIG
381 65 4 0.000000 11.743000 0.230000 17.835461 # Cc LIG
382 65 4 0.000000 24.799999 22.844999 17.835461 # Cc LIG
383 65 4 0.000000 6.986000 32.669998 17.835461 # Cc LIG
384 65 4 0.000000 20.042999 10.055000 17.835461 # Cc LIG
385 65 6 0.000000 0.271000 6.864000 24.154461 # H LIG
386 65 6 0.000000 13.328000 29.479000 24.154461 # H LIG
387 65 6 0.000000 6.977000 19.417999 24.154461 # H LIG
388 65 6 0.000000 20.033001 42.033001 24.154461 # H LIG
389 65 7 0.000000 5.314000 7.966000 0.934500 # Mg LIG
390 65 7 0.000000 18.371000 30.580999 0.934500 # Mg LIG
391 65 7 0.000000 4.242000 6.491000 26.295460 # Mg LIG
392 65 7 0.000000 17.299000 29.106001 26.295460 # Mg LIG
393 65 7 0.000000 3.501000 8.158000 3.240500 # Mg LIG
394 65 7 0.000000 16.558001 30.773001 3.240500 # Mg LIG
395 65 7 0.000000 7.743000 14.649000 26.732460 # Mg LIG
396 65 7 0.000000 20.799000 37.264000 26.732460 # Mg LIG
397 65 7 0.000000 8.815000 16.124001 1.370500 # Mg LIG
398 65 7 0.000000 21.872000 38.738998 1.370500 # Mg LIG
399 65 7 0.000000 9.556000 14.457000 24.426460 # Mg LIG
400 65 7 0.000000 22.613001 37.071999 24.426460 # Mg LIG
401 65 7 0.000000 8.815000 31.200001 26.732460 # Mg LIG
402 65 7 0.000000 21.872000 8.585000 26.732460 # Mg LIG
403 65 7 0.000000 9.556000 29.534000 1.370500 # Mg LIG
404 65 7 0.000000 22.613001 6.919000 1.370500 # Mg LIG
405 65 7 0.000000 4.242000 21.568001 3.240500 # Mg LIG
406 65 7 0.000000 17.299000 44.182999 3.240500 # Mg LIG
407 65 7 0.000000 8.815000 1.047000 24.426460 # Mg LIG
408 65 7 0.000000 21.872000 23.662001 24.426460 # Mg LIG
409 65 7 0.000000 5.314000 38.118999 3.240500 # Mg LIG
410 65 7 0.000000 18.371000 15.504000 3.240500 # Mg LIG
411 65 7 0.000000 7.743000 44.801998 1.370500 # Mg LIG
412 65 7 0.000000 20.799000 22.187000 1.370500 # Mg LIG
413 65 7 0.000000 9.556000 44.611000 26.732460 # Mg LIG
414 65 7 0.000000 22.613001 21.996000 26.732460 # Mg LIG
415 65 7 0.000000 3.501000 38.311001 26.295460 # Mg LIG
416 65 7 0.000000 16.558001 15.696000 26.295460 # Mg LIG
417 65 7 0.000000 4.242000 36.645000 0.934500 # Mg LIG
418 65 7 0.000000 17.299000 14.030000 0.934500 # Mg LIG
419 65 7 0.000000 5.314000 23.042999 26.295460 # Mg LIG
420 65 7 0.000000 18.371000 0.428000 26.295460 # Mg LIG
421 65 7 0.000000 3.501000 23.233999 0.934500 # Mg LIG
422 65 7 0.000000 16.558001 0.619000 0.934500 # Mg LIG
423 65 7 0.000000 7.743000 29.726000 24.426460 # Mg LIG
424 65 7 0.000000 20.799000 7.111000 24.426460 # Mg LIG
425 65 2 0.000000 5.704000 9.170000 25.972460 # Ca LIG
426 65 2 0.000000 18.761000 31.785000 25.972460 # Ca LIG
427 65 3 0.000000 6.098000 10.247000 25.032459 # Cb LIG
428 65 3 0.000000 19.155001 32.862000 25.032459 # Cb LIG
429 65 5 0.000000 6.932000 11.258000 25.527460 # Cd LIG
430 65 5 0.000000 19.989000 33.873001 25.527460 # Cd LIG
431 65 6 0.000000 7.248000 11.206000 26.567459 # H LIG
432 65 6 0.000000 20.305000 33.820999 26.567459 # H LIG
433 65 9 0.000000 6.149000 9.140000 27.162460 # Ob LIG
434 65 9 0.000000 19.205999 31.754999 27.162460 # Ob LIG
435 65 8 0.000000 4.881000 8.269000 25.544460 # Oa LIG
436 65 8 0.000000 17.938000 30.884001 25.544460 # Oa LIG
437 65 10 0.000000 8.183000 13.257000 25.327459 # Oc LIG
438 65 10 0.000000 21.240000 35.872002 25.327459 # Oc LIG
439 65 8 0.000000 4.721000 6.715000 2.488500 # Oa LIG
440 65 8 0.000000 17.777000 29.330000 2.488500 # Oa LIG
441 65 8 0.000000 3.455000 7.631000 0.183500 # Oa LIG
442 65 8 0.000000 16.511000 30.246000 0.183500 # Oa LIG
443 65 10 0.000000 4.874000 9.358000 2.338500 # Oc LIG
444 65 10 0.000000 17.930000 31.973000 2.338500 # Oc LIG
445 65 10 0.000000 5.668000 6.177000 0.033500 # Oc LIG
446 65 10 0.000000 18.725000 28.792000 0.033500 # Oc LIG
447 65 4 0.000000 5.672000 10.284000 2.914500 # Cc LIG
448 65 4 0.000000 18.729000 32.898998 2.914500 # Cc LIG
449 65 2 0.000000 7.353000 13.445000 1.694500 # Ca LIG
450 65 2 0.000000 20.409000 36.060001 1.694500 # Ca LIG
451 65 3 0.000000 6.959000 12.368000 2.634500 # Cb LIG
452 65 3 0.000000 20.016001 34.983002 2.634500 # Cb LIG
453 65 4 0.000000 7.384000 12.331000 24.752460 # Cc LIG
454 65 4 0.000000 20.441000 34.945999 24.752460 # Cc LIG
455 65 5 0.000000 6.125000 11.357000 2.139500 # Cd LIG
456 65 5 0.000000 19.181000 33.972000 2.139500 # Cd LIG
457 65 6 0.000000 5.809000 11.409000 1.099500 # H LIG
458 65 6 0.000000 18.865999 34.023998 1.099500 # H LIG
459 65 9 0.000000 6.908000 13.475000 0.504500 # Ob LIG
460 65 9 0.000000 19.965000 36.090000 0.504500 # Ob LIG
461 65 8 0.000000 8.175000 14.346000 2.121500 # Oa LIG
462 65 8 0.000000 21.232000 36.960999 2.121500 # Oa LIG
463 65 8 0.000000 8.336000 15.900000 25.177460 # Oa LIG
464 65 8 0.000000 21.393000 38.514999 25.177460 # Oa LIG
465 65 8 0.000000 9.602000 14.984000 27.483459 # Oa LIG
466 65 8 0.000000 22.659000 37.598999 27.483459 # Oa LIG
467 65 10 0.000000 7.389000 16.438000 27.633459 # Oc LIG
468 65 10 0.000000 20.445999 39.053001 27.633459 # Oc LIG
469 65 8 0.000000 9.602000 30.059999 25.177460 # Oa LIG
470 65 8 0.000000 22.659000 7.445000 25.177460 # Oa LIG
471 65 8 0.000000 8.336000 30.976999 2.121500 # Oa LIG
472 65 8 0.000000 21.393000 8.362000 2.121500 # Oa LIG
473 65 8 0.000000 4.721000 21.791000 0.183500 # Oa LIG
474 65 8 0.000000 17.777000 44.405998 0.183500 # Oa LIG
475 65 10 0.000000 5.668000 21.254000 25.394459 # Oc LIG
476 65 10 0.000000 18.725000 43.868999 25.394459 # Oc LIG
477 65 8 0.000000 8.336000 0.824000 27.483459 # Oa LIG
478 65 8 0.000000 21.393000 23.438999 27.483459 # Oa LIG
479 65 10 0.000000 7.389000 1.361000 2.271500 # Oc LIG
480 65 10 0.000000 20.445999 23.976000 2.271500 # Oc LIG
481 65 10 0.000000 4.874000 39.512001 25.394459 # Oc LIG
482 65 10 0.000000 17.930000 16.896999 25.394459 # Oc LIG
483 65 2 0.000000 5.704000 39.324001 0.610500 # Ca LIG
484 65 2 0.000000 18.761000 16.709000 0.610500 # Ca LIG
485 65 3 0.000000 6.098000 40.401001 27.338459 # Cb LIG
486 65 3 0.000000 19.155001 17.785999 27.338459 # Cb LIG
487 65 4 0.000000 5.672000 40.438000 25.970459 # Cc LIG
488 65 4 0.000000 18.729000 17.823000 25.970459 # Cc LIG
489 65 5 0.000000 6.932000 41.410999 0.166500 # Cd LIG
490 65 5 0.000000 19.989000 18.796000 0.166500 # Cd LIG
491 65 6 0.000000 7.248000 41.359001 1.205500 # H LIG
492 65 6 0.000000 20.305000 18.743999 1.205500 # H LIG
493 65 9 0.000000 6.149000 39.292999 1.800500 # Ob LIG
494 65 9 0.000000 19.205999 16.677999 1.800500 # Ob LIG
495 65 8 0.000000 4.882000 38.423000 0.183500 # Oa LIG
496 65 8 0.000000 17.938000 15.808000 0.183500 # Oa LIG
497 65 3 0.000000 6.959000 42.521000 25.690460 # Cb LIG
498 65 3 0.000000 20.016001 19.906000 25.690460 # Cb LIG
499 65 4 0.000000 7.384000 42.484001 27.057461 # Cc LIG
500 65 4 0.000000 20.441000 19.868999 27.057461 # Cc LIG
501 65 5 0.000000 6.125000 41.509998 25.194460 # Cd LIG
502 65 5 0.000000 19.181000 18.895000 25.194460 # Cd LIG
503 65 8 0.000000 8.175000 44.499001 25.177460 # Oa LIG
504 65 8 0.000000 21.232000 21.884001 25.177460 # Oa LIG
505 65 10 0.000000 8.183000 43.410000 27.633459 # Oc LIG
506 65 10 0.000000 21.240000 20.795000 27.633459 # Oc LIG
507 65 10 0.000000 5.668000 36.330002 2.338500 # Oc LIG
508 65 10 0.000000 18.725000 13.715000 2.338500 # Oc LIG
509 65 2 0.000000 7.353000 43.598000 24.750460 # Ca LIG
510 65 2 0.000000 20.409000 20.983000 24.750460 # Ca LIG
511 65 9 0.000000 6.908000 43.627998 2.809500 # Ob LIG
512 65 9 0.000000 19.965000 21.013000 2.809500 # Ob LIG
513 65 8 0.000000 9.602000 45.137001 2.121500 # Oa LIG
514 65 8 0.000000 22.659000 22.521999 2.121500 # Oa LIG
515 65 8 0.000000 4.721000 36.868000 25.544460 # Oa LIG
516 65 8 0.000000 17.778000 14.253000 25.544460 # Oa LIG
517 65 8 0.000000 3.455000 37.785000 2.488500 # Oa LIG
518 65 8 0.000000 16.511000 15.170000 2.488500 # Oa LIG
519 65 10 0.000000 2.515000 22.156000 2.338500 # Oc LIG
520 65 10 0.000000 15.572000 44.771000 2.338500 # Oc LIG
521 65 4 0.000000 1.314000 22.385000 2.914500 # Cc LIG
522 65 4 0.000000 14.371000 45.000000 2.914500 # Cc LIG
523 65 2 0.000000 10.794000 44.875000 1.694500 # Ca LIG
524 65 2 0.000000 23.851000 22.260000 1.694500 # Ca LIG
525 65 3 0.000000 11.924000 45.073002 2.634500 # Cb LIG
526 65 3 0.000000 24.980000 22.458000 2.634500 # Cb LIG