ITEM: TIMESTEP
0
ITEM: NUMBER OF ATOMS
11
ITEM: BOX BOUNDS pp pp pp
0 26.114
0 45.23
0 27.667
ITEM: ATOMS id x y z ix iy iz 
1 0.814871 17.9455 7.95082 -3 2 -15 
2 11.5899 8.06968 19.9758 -3 4 -11 
3 9.57127 39.7463 5.5274 3 1 12 
4 24.7122 18.2218 17.7637 0 0 8 
5 23.5814 26.6802 20.6512 0 -1 23 
6 11.6772 3.70498 10.3266 1 -1 -33 
7 2.51287 9.61803 10.1012 6 -1 -26 
8 25.106 14.41 24.769 0 1 -11 
9 8.94082 9.43916 7.93217 2 5 15 
10 0.646232 31.2872 1.58657 -1 -6 290 
11 16.9059 22.9217 15.1352 -6 2 -6 
ITEM: TIMESTEP
10
ITEM: NUMBER OF ATOMS
11
ITEM: BOX BOUNDS pp pp pp
0 26.114
0 45.23
0 27.667
ITEM: ATOMS id x y z ix iy iz 
1 0.858725 17.9749 8.0312 -3 2 -15 
2 11.6237 8.0269 20.0067 -3 4 -11 
3 9.57217 39.7629 5.52902 3 1 12 
4 24.772 18.1893 17.7162 0 0 8 
5 23.5332 26.7423 20.5737 0 -1 23 
6 11.6686 3.76544 10.3501 1 -1 -33 
7 2.53213 9.59067 10.0803 6 -1 -26 
8 25.1945 14.3873 24.7311 0 1 -11 
9 8.91716 9.40138 7.97529 2 5 15 
10 0.674217 31.3242 1.63299 -1 -6 290 
11 16.9913 22.9469 15.1436 -6 2 -6 
ITEM: TIMESTEP
20
ITEM: NUMBER OF ATOMS
11
ITEM: BOX BOUNDS pp pp pp
0 26.114
0 45.23
0 27.667
ITEM: ATOMS id x y z ix iy iz 
1 0.902345 18.0041 8.11113 -3 2 -15 
2 11.6573 7.98436 20.0374 -3 4 -11 
3 9.57306 39.7795 5.53062 3 1 12 
4 24.8316 18.1571 17.669 0 0 8 
5 23.4853 26.8041 20.4966 0 -1 23 
6 11.66 3.82552 10.3733 1 -1 -33 
7 2.54722 9.57096 10.0604 6 -1 -26 
8 25.2825 14.3648 24.6935 0 1 -11 
9 8.89364 9.36382 8.0182 2 5 15 
10 0.70205 31.3611 1.67914 -1 -6 290 
11 17.0762 22.9719 15.1519 -6 2 -6 
ITEM: TIMESTEP
30
ITEM: NUMBER OF ATOMS
11
ITEM: BOX BOUNDS pp pp pp
0 26.114
0 45.23
0 27.667
ITEM: ATOMS id x y z ix iy iz 
1 0.946119 18.0335 8.19131 -3 2 -15 
2 11.691 7.9417 20.0682 -3 4 -11 
3 9.57392 39.7961 5.53222 3 1 12 
4 24.8913 18.1248 17.6217 0 0 8 
5 23.4372 26.866 20.4192 0 -1 23 
6 11.6514 3.88576 10.3967 1 -1 -33 
7 2.55801 9.55931 10.0414 6 -1 -26 
8 25.3708 14.3422 24.6558 0 1 -11 
9 8.87007 9.32615 8.06126 2 5 15 
10 0.729978 31.398 1.72544 -1 -6 290 
11 17.1613 22.997 15.1602 -6 2 -6 
ITEM: TIMESTEP
40
ITEM: NUMBER OF ATOMS
11
ITEM: BOX BOUNDS pp pp pp
0 26.114
0 45.23
0 27.667
ITEM: ATOMS id x y z ix iy iz 
1 0.990846 18.0635 8.27319 -3 2 -15 
2 11.7255 7.89813 20.0997 -3 4 -11 
3 9.57478 39.8131 5.53385 3 1 12 
4 24.9523 18.0918 17.5733 0 0 8 
5 23.388 26.9292 20.3403 0 -1 23 
6 11.6425 3.94725 10.4206 1 -1 -33 
7 2.5645 9.55591 10.0228 6 -1 -26 
8 25.4609 14.3191 24.6173 0 1 -11 
9 8.84599 9.28767 8.10527 2 5 15 
10 0.758509 31.4358 1.77273 -1 -6 290 
11 17.2481 23.0225 15.1686 -6 2 -6 
