LAMMPS data file. CGCMM style. atom_style full generated by VMD/TopoTools v1.5 on Sun Apr 09 11:00:38 PDT 2017
 2121 atoms
 550 bonds
 0 angles
 0 dihedrals
 0 impropers
 11 atom types
 1 bond types
 0 angle types
 0 dihedral types
 0 improper types
 0.439550 26.456750  xlo xhi
 0.332838 45.395937  ylo yhi
 0.086000 27.402000  zlo zhi

# Pair Coeffs
#
# 1  Ca
# 2  Cb
# 3  Cc
# 4  Cd
# 5  Cg
# 6  H
# 7  Ni
# 8  Oa
# 9  Ob
# 10  Oc
# 11  Og

 Masses

 1 12.011000 # Ca
 2 12.011000 # Cb
 3 12.011000 # Cc
 4 12.011000 # Cd
 5 12.011000 # Cg
 6 1.008000 # H
 7 58.693001 # Ni
 8 15.999000 # Oa
 9 15.999000 # Ob
 10 15.999000 # Oc
 11 15.999000 # Og

 Atoms

1 1 11 -0.325600 26.017300 45.062775 16.175999 # Og 
2 1 5 0.651200 26.017300 45.062775 15.016000 # Cg 
3 1 11 -0.325600 26.017300 45.062775 13.856000 # Og 
4 2 11 -0.325600 26.017300 45.062775 16.571999 # Og 
5 2 5 0.651200 26.017300 45.062775 15.412000 # Cg 
6 2 11 -0.325600 26.017300 45.062775 14.252000 # Og 
7 3 11 -0.325600 26.017300 45.062775 16.968000 # Og 
8 3 5 0.651200 26.017300 45.062775 15.808000 # Cg 
9 3 11 -0.325600 26.017300 45.062775 14.648000 # Og 
10 4 11 -0.325600 26.017300 45.062775 17.364000 # Og 
11 4 5 0.651200 26.017300 45.062775 16.203999 # Cg 
12 4 11 -0.325600 26.017300 45.062775 15.044000 # Og 
13 5 11 -0.325600 26.017300 45.062775 17.760000 # Og 
14 5 5 0.651200 26.017300 45.062775 16.600000 # Cg 
15 5 11 -0.325600 26.017300 45.062775 15.440000 # Og 
16 6 11 -0.325600 26.017300 45.062775 18.156000 # Og 
17 6 5 0.651200 26.017300 45.062775 16.996000 # Cg 
18 6 11 -0.325600 26.017300 45.062775 15.836000 # Og 
19 7 11 -0.325600 26.017300 45.062775 18.550999 # Og 
20 7 5 0.651200 26.017300 45.062775 17.390999 # Cg 
21 7 11 -0.325600 26.017300 45.062775 16.230999 # Og 
22 8 11 -0.325600 26.017300 45.062775 18.946999 # Og 
23 8 5 0.651200 26.017300 45.062775 17.786999 # Cg 
24 8 11 -0.325600 26.017300 45.062775 16.626999 # Og 
25 9 11 -0.325600 26.017300 45.062775 19.343000 # Og 
26 9 5 0.651200 26.017300 45.062775 18.182999 # Cg 
27 9 11 -0.325600 26.017300 45.062775 17.022999 # Og 
28 10 11 -0.325600 26.017300 45.062775 19.739000 # Og 
29 10 5 0.651200 26.017300 45.062775 18.578999 # Cg 
30 10 11 -0.325600 26.017300 45.062775 17.418999 # Og 
31 11 11 -0.325600 26.017300 45.062775 20.135000 # Og 
32 11 5 0.651200 26.017300 45.062775 18.975000 # Cg 
33 11 11 -0.325600 26.017300 45.062775 17.814999 # Og 
34 12 11 -0.325600 26.017300 45.062775 20.531000 # Og 
35 12 5 0.651200 26.017300 45.062775 19.371000 # Cg 
36 12 11 -0.325600 26.017300 45.062775 18.211000 # Og 
37 13 11 -0.325600 26.017300 45.062775 20.927000 # Og 
38 13 5 0.651200 26.017300 45.062775 19.767000 # Cg 
39 13 11 -0.325600 26.017300 45.062775 18.607000 # Og 
40 14 11 -0.325600 26.017300 45.062775 21.323000 # Og 
41 14 5 0.651200 26.017300 45.062775 20.163000 # Cg 
42 14 11 -0.325600 26.017300 45.062775 19.003000 # Og 
43 15 11 -0.325600 26.017300 45.062775 21.718000 # Og 
44 15 5 0.651200 26.017300 45.062775 20.558001 # Cg 
45 15 11 -0.325600 26.017300 45.062775 19.397999 # Og 
46 16 11 -0.325600 26.017300 45.062775 22.114000 # Og 
47 16 5 0.651200 26.017300 45.062775 20.954000 # Cg 
48 16 11 -0.325600 26.017300 45.062775 19.794001 # Og 
49 17 11 -0.325600 26.017300 45.062775 22.510000 # Og 
50 17 5 0.651200 26.017300 45.062775 21.350000 # Cg 
51 17 11 -0.325600 26.017300 45.062775 20.190001 # Og 
52 18 11 -0.325600 26.017300 45.062775 22.906000 # Og 
53 18 5 0.651200 26.017300 45.062775 21.746000 # Cg 
54 18 11 -0.325600 26.017300 45.062775 20.586000 # Og 
55 19 11 -0.325600 26.017300 45.062775 23.302000 # Og 
56 19 5 0.651200 26.017300 45.062775 22.142000 # Cg 
57 19 11 -0.325600 26.017300 45.062775 20.982000 # Og 
58 20 11 -0.325600 26.017300 45.062775 23.698000 # Og 
59 20 5 0.651200 26.017300 45.062775 22.538000 # Cg 
60 20 11 -0.325600 26.017300 45.062775 21.378000 # Og 
61 21 11 -0.325600 26.017300 45.062775 24.094000 # Og 
62 21 5 0.651200 26.017300 45.062775 22.934000 # Cg 
63 21 11 -0.325600 26.017300 45.062775 21.774000 # Og 
64 22 11 -0.325600 26.017300 45.062775 24.490000 # Og 
65 22 5 0.651200 26.017300 45.062775 23.330000 # Cg 
66 22 11 -0.325600 26.017300 45.062775 22.170000 # Og 
67 23 11 -0.325600 26.017300 45.062775 24.885000 # Og 
68 23 5 0.651200 26.017300 45.062775 23.725000 # Cg 
69 23 11 -0.325600 26.017300 45.062775 22.565001 # Og 
70 24 11 -0.325600 26.017300 45.062775 25.281000 # Og 
71 24 5 0.651200 26.017300 45.062775 24.121000 # Cg 
72 24 11 -0.325600 26.017300 45.062775 22.961000 # Og 
73 25 11 -0.325600 26.017300 45.062775 25.677000 # Og 
74 25 5 0.651200 26.017300 45.062775 24.517000 # Cg 
75 25 11 -0.325600 26.017300 45.062775 23.357000 # Og 
76 26 11 -0.325600 26.017300 45.062775 26.073000 # Og 
77 26 5 0.651200 26.017300 45.062775 24.913000 # Cg 
78 26 11 -0.325600 26.017300 45.062775 23.753000 # Og 
79 27 11 -0.325600 26.017300 45.062775 26.469000 # Og 
80 27 5 0.651200 26.017300 45.062775 25.309000 # Cg 
81 27 11 -0.325600 26.017300 45.062775 24.149000 # Og 
82 28 11 -0.325600 26.017300 45.062775 26.865000 # Og 
83 28 5 0.651200 26.017300 45.062775 25.705000 # Cg 
84 28 11 -0.325600 26.017300 45.062775 24.545000 # Og 
85 29 11 -0.325600 26.017300 45.062775 27.261000 # Og 
86 29 5 0.651200 26.017300 45.062775 26.101000 # Cg 
87 29 11 -0.325600 26.017300 45.062775 24.941000 # Og 
88 30 11 -0.325600 26.017300 45.062775 0.341000 # Og 
89 30 5 0.651200 26.017300 45.062775 26.497000 # Cg 
90 30 11 -0.325600 26.017300 45.062775 25.337000 # Og 
91 31 11 -0.325600 26.017300 45.062775 0.736000 # Og 
92 31 5 0.651200 26.017300 45.062775 26.892000 # Cg 
93 31 11 -0.325600 26.017300 45.062775 25.732000 # Og 
94 32 11 -0.325600 26.017300 45.062775 1.132000 # Og 
95 32 5 0.651200 26.017300 45.062775 27.288000 # Cg 
96 32 11 -0.325600 26.017300 45.062775 26.128000 # Og 
97 33 11 -0.325600 26.017300 45.062775 1.528000 # Og 
98 33 5 0.651200 26.017300 45.062775 0.368000 # Cg 
99 33 11 -0.325600 26.017300 45.062775 26.524000 # Og 
100 34 11 -0.325600 26.017300 45.062775 1.924000 # Og 
101 34 5 0.651200 26.017300 45.062775 0.764000 # Cg 
102 34 11 -0.325600 26.017300 45.062775 26.920000 # Og 
103 35 11 -0.325600 26.017300 45.062775 2.320000 # Og 
104 35 5 0.651200 26.017300 45.062775 1.160000 # Cg 
105 35 11 -0.325600 26.017300 45.062775 0.000000 # Og 
106 36 11 -0.325600 26.017300 45.062775 2.716000 # Og 
107 36 5 0.651200 26.017300 45.062775 1.556000 # Cg 
108 36 11 -0.325600 26.017300 45.062775 0.396000 # Og 
109 37 11 -0.325600 26.017300 45.062775 3.112000 # Og 
110 37 5 0.651200 26.017300 45.062775 1.952000 # Cg 
111 37 11 -0.325600 26.017300 45.062775 0.792000 # Og 
112 38 11 -0.325600 26.017300 45.062775 3.508000 # Og 
113 38 5 0.651200 26.017300 45.062775 2.348000 # Cg 
114 38 11 -0.325600 26.017300 45.062775 1.188000 # Og 
115 39 11 -0.325600 26.017300 45.062775 3.904000 # Og 
116 39 5 0.651200 26.017300 45.062775 2.744000 # Cg 
117 39 11 -0.325600 26.017300 45.062775 1.584000 # Og 
118 40 11 -0.325600 26.017300 45.062775 4.299000 # Og 
119 40 5 0.651200 26.017300 45.062775 3.139000 # Cg 
120 40 11 -0.325600 26.017300 45.062775 1.979000 # Og 
121 41 11 -0.325600 26.017300 45.062775 4.695000 # Og 
122 41 5 0.651200 26.017300 45.062775 3.535000 # Cg 
123 41 11 -0.325600 26.017300 45.062775 2.375000 # Og 
124 42 11 -0.325600 26.017300 45.062775 5.091000 # Og 
125 42 5 0.651200 26.017300 45.062775 3.931000 # Cg 
126 42 11 -0.325600 26.017300 45.062775 2.771000 # Og 
127 43 11 -0.325600 26.017300 45.062775 5.487000 # Og 
128 43 5 0.651200 26.017300 45.062775 4.327000 # Cg 
129 43 11 -0.325600 26.017300 45.062775 3.167000 # Og 
130 44 11 -0.325600 26.017300 45.062775 5.883000 # Og 
131 44 5 0.651200 26.017300 45.062775 4.723000 # Cg 
132 44 11 -0.325600 26.017300 45.062775 3.563000 # Og 
133 45 11 -0.325600 26.017300 45.062775 6.279000 # Og 
134 45 5 0.651200 26.017300 45.062775 5.119000 # Cg 
135 45 11 -0.325600 26.017300 45.062775 3.959000 # Og 
136 46 11 -0.325600 26.017300 45.062775 6.675000 # Og 
137 46 5 0.651200 26.017300 45.062775 5.515000 # Cg 
138 46 11 -0.325600 26.017300 45.062775 4.355000 # Og 
139 47 11 -0.325600 26.017300 45.062775 7.071000 # Og 
140 47 5 0.651200 26.017300 45.062775 5.911000 # Cg 
141 47 11 -0.325600 26.017300 45.062775 4.751000 # Og 
142 48 11 -0.325600 26.017300 45.062775 7.466000 # Og 
143 48 5 0.651200 26.017300 45.062775 6.306000 # Cg 
144 48 11 -0.325600 26.017300 45.062775 5.146000 # Og 
145 49 11 -0.325600 26.017300 45.062775 7.862000 # Og 
146 49 5 0.651200 26.017300 45.062775 6.702000 # Cg 
147 49 11 -0.325600 26.017300 45.062775 5.542000 # Og 
148 50 11 -0.325600 26.017300 45.062775 8.258000 # Og 
149 50 5 0.651200 26.017300 45.062775 7.098000 # Cg 
150 50 11 -0.325600 26.017300 45.062775 5.938000 # Og 
151 51 11 -0.325600 26.017300 45.062775 8.654000 # Og 
152 51 5 0.651200 26.017300 45.062775 7.494000 # Cg 
153 51 11 -0.325600 26.017300 45.062775 6.334000 # Og 
154 52 11 -0.325600 26.017300 45.062775 9.050000 # Og 
155 52 5 0.651200 26.017300 45.062775 7.890000 # Cg 
156 52 11 -0.325600 26.017300 45.062775 6.730000 # Og 
157 53 11 -0.325600 26.017300 45.062775 9.446000 # Og 
158 53 5 0.651200 26.017300 45.062775 8.286000 # Cg 
159 53 11 -0.325600 26.017300 45.062775 7.126000 # Og 
160 54 11 -0.325600 26.017300 45.062775 9.842000 # Og 
161 54 5 0.651200 26.017300 45.062775 8.682000 # Cg 
162 54 11 -0.325600 26.017300 45.062775 7.522000 # Og 
163 55 11 -0.325600 26.017300 45.062775 10.238000 # Og 
164 55 5 0.651200 26.017300 45.062775 9.078000 # Cg 
165 55 11 -0.325600 26.017300 45.062775 7.918000 # Og 
166 56 11 -0.325600 26.017300 45.062775 10.633000 # Og 
167 56 5 0.651200 26.017300 45.062775 9.473000 # Cg 
168 56 11 -0.325600 26.017300 45.062775 8.313000 # Og 
169 57 11 -0.325600 26.017300 45.062775 11.029000 # Og 
170 57 5 0.651200 26.017300 45.062775 9.869000 # Cg 
171 57 11 -0.325600 26.017300 45.062775 8.709000 # Og 
172 58 11 -0.325600 26.017300 45.062775 11.425000 # Og 
173 58 5 0.651200 26.017300 45.062775 10.265000 # Cg 
174 58 11 -0.325600 26.017300 45.062775 9.105000 # Og 
175 59 11 -0.325600 26.017300 45.062775 11.821000 # Og 
176 59 5 0.651200 26.017300 45.062775 10.661000 # Cg 
177 59 11 -0.325600 26.017300 45.062775 9.501000 # Og 
178 60 11 -0.325600 26.017300 45.062775 12.217000 # Og 
179 60 5 0.651200 26.017300 45.062775 11.057000 # Cg 
180 60 11 -0.325600 26.017300 45.062775 9.897000 # Og 
181 61 11 -0.325600 26.017300 45.062775 12.613000 # Og 
182 61 5 0.651200 26.017300 45.062775 11.453000 # Cg 
183 61 11 -0.325600 26.017300 45.062775 10.293000 # Og 
184 62 11 -0.325600 26.017300 45.062775 13.009000 # Og 
185 62 5 0.651200 26.017300 45.062775 11.849000 # Cg 
186 62 11 -0.325600 26.017300 45.062775 10.689000 # Og 
187 63 11 -0.325600 26.017300 45.062775 13.405000 # Og 
188 63 5 0.651200 26.017300 45.062775 12.245000 # Cg 
189 63 11 -0.325600 26.017300 45.062775 11.085000 # Og 
190 64 11 -0.325600 26.017300 45.062775 13.800000 # Og 
191 64 5 0.651200 26.017300 45.062775 12.640000 # Cg 
192 64 11 -0.325600 26.017300 45.062775 11.480000 # Og 
193 65 11 -0.325600 26.017300 45.062775 14.196000 # Og 
194 65 5 0.651200 26.017300 45.062775 13.036000 # Cg 
195 65 11 -0.325600 26.017300 45.062775 11.876000 # Og 
196 66 11 -0.325600 26.017300 45.062775 14.592000 # Og 
197 66 5 0.651200 26.017300 45.062775 13.432000 # Cg 
198 66 11 -0.325600 26.017300 45.062775 12.272000 # Og 
199 67 11 -0.325600 26.017300 45.062775 14.988000 # Og 
200 67 5 0.651200 26.017300 45.062775 13.828000 # Cg 
201 67 11 -0.325600 26.017300 45.062775 12.668000 # Og 
202 68 11 -0.325600 26.017300 45.062775 15.384000 # Og 
203 68 5 0.651200 26.017300 45.062775 14.224000 # Cg 
204 68 11 -0.325600 26.017300 45.062775 13.064000 # Og 
205 69 11 -0.325600 26.017300 45.062775 15.780000 # Og 
206 69 5 0.651200 26.017300 45.062775 14.620000 # Cg 
207 69 11 -0.325600 26.017300 45.062775 13.460000 # Og 
208 70 11 -0.325600 26.017300 22.531775 16.175999 # Og 
209 70 5 0.651200 26.017300 22.531775 15.016000 # Cg 
210 70 11 -0.325600 26.017300 22.531775 13.856000 # Og 
211 71 11 -0.325600 26.017300 22.531775 16.571999 # Og 
212 71 5 0.651200 26.017300 22.531775 15.412000 # Cg 
213 71 11 -0.325600 26.017300 22.531775 14.252000 # Og 
214 72 11 -0.325600 26.017300 22.531775 16.968000 # Og 
215 72 5 0.651200 26.017300 22.531775 15.808000 # Cg 
216 72 11 -0.325600 26.017300 22.531775 14.648000 # Og 
217 73 11 -0.325600 26.017300 22.531775 17.364000 # Og 
218 73 5 0.651200 26.017300 22.531775 16.203999 # Cg 
219 73 11 -0.325600 26.017300 22.531775 15.044000 # Og 
220 74 11 -0.325600 26.017300 22.531775 17.760000 # Og 
221 74 5 0.651200 26.017300 22.531775 16.600000 # Cg 
222 74 11 -0.325600 26.017300 22.531775 15.440000 # Og 
223 75 11 -0.325600 26.017300 22.531775 18.156000 # Og 
224 75 5 0.651200 26.017300 22.531775 16.996000 # Cg 
225 75 11 -0.325600 26.017300 22.531775 15.836000 # Og 
226 76 11 -0.325600 26.017300 22.531775 18.550999 # Og 
227 76 5 0.651200 26.017300 22.531775 17.390999 # Cg 
228 76 11 -0.325600 26.017300 22.531775 16.230999 # Og 
229 77 11 -0.325600 26.017300 22.531775 18.946999 # Og 
230 77 5 0.651200 26.017300 22.531775 17.786999 # Cg 
231 77 11 -0.325600 26.017300 22.531775 16.626999 # Og 
232 78 11 -0.325600 26.017300 22.531775 19.343000 # Og 
233 78 5 0.651200 26.017300 22.531775 18.182999 # Cg 
234 78 11 -0.325600 26.017300 22.531775 17.022999 # Og 
235 79 11 -0.325600 26.017300 22.531775 19.739000 # Og 
236 79 5 0.651200 26.017300 22.531775 18.578999 # Cg 
237 79 11 -0.325600 26.017300 22.531775 17.418999 # Og 
238 80 11 -0.325600 26.017300 22.531775 20.135000 # Og 
239 80 5 0.651200 26.017300 22.531775 18.975000 # Cg 
240 80 11 -0.325600 26.017300 22.531775 17.814999 # Og 
241 81 11 -0.325600 26.017300 22.531775 20.531000 # Og 
242 81 5 0.651200 26.017300 22.531775 19.371000 # Cg 
243 81 11 -0.325600 26.017300 22.531775 18.211000 # Og 
244 82 11 -0.325600 26.017300 22.531775 20.927000 # Og 
245 82 5 0.651200 26.017300 22.531775 19.767000 # Cg 
246 82 11 -0.325600 26.017300 22.531775 18.607000 # Og 
247 83 11 -0.325600 26.017300 22.531775 21.323000 # Og 
248 83 5 0.651200 26.017300 22.531775 20.163000 # Cg 
249 83 11 -0.325600 26.017300 22.531775 19.003000 # Og 
250 84 11 -0.325600 26.017300 22.531775 21.718000 # Og 
251 84 5 0.651200 26.017300 22.531775 20.558001 # Cg 
252 84 11 -0.325600 26.017300 22.531775 19.397999 # Og 
253 85 11 -0.325600 26.017300 22.531775 22.114000 # Og 
254 85 5 0.651200 26.017300 22.531775 20.954000 # Cg 
255 85 11 -0.325600 26.017300 22.531775 19.794001 # Og 
256 86 11 -0.325600 26.017300 22.531775 22.510000 # Og 
257 86 5 0.651200 26.017300 22.531775 21.350000 # Cg 
258 86 11 -0.325600 26.017300 22.531775 20.190001 # Og 
259 87 11 -0.325600 26.017300 22.531775 22.906000 # Og 
260 87 5 0.651200 26.017300 22.531775 21.746000 # Cg 
261 87 11 -0.325600 26.017300 22.531775 20.586000 # Og 
262 88 11 -0.325600 26.017300 22.531775 23.302000 # Og 
263 88 5 0.651200 26.017300 22.531775 22.142000 # Cg 
264 88 11 -0.325600 26.017300 22.531775 20.982000 # Og 
265 89 11 -0.325600 26.017300 22.531775 23.698000 # Og 
266 89 5 0.651200 26.017300 22.531775 22.538000 # Cg 
267 89 11 -0.325600 26.017300 22.531775 21.378000 # Og 
268 90 11 -0.325600 26.017300 22.531775 24.094000 # Og 
269 90 5 0.651200 26.017300 22.531775 22.934000 # Cg 
270 90 11 -0.325600 26.017300 22.531775 21.774000 # Og 
271 91 11 -0.325600 26.017300 22.531775 24.490000 # Og 
272 91 5 0.651200 26.017300 22.531775 23.330000 # Cg 
273 91 11 -0.325600 26.017300 22.531775 22.170000 # Og 
274 92 11 -0.325600 26.017300 22.531775 24.885000 # Og 
275 92 5 0.651200 26.017300 22.531775 23.725000 # Cg 
276 92 11 -0.325600 26.017300 22.531775 22.565001 # Og 
277 93 11 -0.325600 26.017300 22.531775 25.281000 # Og 
278 93 5 0.651200 26.017300 22.531775 24.121000 # Cg 
279 93 11 -0.325600 26.017300 22.531775 22.961000 # Og 
280 94 11 -0.325600 26.017300 22.531775 25.677000 # Og 
281 94 5 0.651200 26.017300 22.531775 24.517000 # Cg 
282 94 11 -0.325600 26.017300 22.531775 23.357000 # Og 
283 95 11 -0.325600 26.017300 22.531775 26.073000 # Og 
284 95 5 0.651200 26.017300 22.531775 24.913000 # Cg 
285 95 11 -0.325600 26.017300 22.531775 23.753000 # Og 
286 96 11 -0.325600 26.017300 22.531775 26.469000 # Og 
287 96 5 0.651200 26.017300 22.531775 25.309000 # Cg 
288 96 11 -0.325600 26.017300 22.531775 24.149000 # Og 
289 97 11 -0.325600 26.017300 22.531775 26.865000 # Og 
290 97 5 0.651200 26.017300 22.531775 25.705000 # Cg 
291 97 11 -0.325600 26.017300 22.531775 24.545000 # Og 
292 98 11 -0.325600 26.017300 22.531775 27.261000 # Og 
293 98 5 0.651200 26.017300 22.531775 26.101000 # Cg 
294 98 11 -0.325600 26.017300 22.531775 24.941000 # Og 
295 99 11 -0.325600 26.017300 22.531775 0.341000 # Og 
296 99 5 0.651200 26.017300 22.531775 26.497000 # Cg 
297 99 11 -0.325600 26.017300 22.531775 25.337000 # Og 
298 100 11 -0.325600 26.017300 22.531775 0.736000 # Og 
299 100 5 0.651200 26.017300 22.531775 26.892000 # Cg 
300 100 11 -0.325600 26.017300 22.531775 25.732000 # Og 
301 101 11 -0.325600 26.017300 22.531775 1.132000 # Og 
302 101 5 0.651200 26.017300 22.531775 27.288000 # Cg 
303 101 11 -0.325600 26.017300 22.531775 26.128000 # Og 
304 102 11 -0.325600 26.017300 22.531775 1.528000 # Og 
305 102 5 0.651200 26.017300 22.531775 0.368000 # Cg 
306 102 11 -0.325600 26.017300 22.531775 26.524000 # Og 
307 103 11 -0.325600 26.017300 22.531775 1.924000 # Og 
308 103 5 0.651200 26.017300 22.531775 0.764000 # Cg 
309 103 11 -0.325600 26.017300 22.531775 26.920000 # Og 
310 104 11 -0.325600 26.017300 22.531775 2.320000 # Og 
311 104 5 0.651200 26.017300 22.531775 1.160000 # Cg 
312 104 11 -0.325600 26.017300 22.531775 0.000000 # Og 
313 105 11 -0.325600 26.017300 22.531775 2.716000 # Og 
314 105 5 0.651200 26.017300 22.531775 1.556000 # Cg 
315 105 11 -0.325600 26.017300 22.531775 0.396000 # Og 
316 106 11 -0.325600 26.017300 22.531775 3.112000 # Og 
317 106 5 0.651200 26.017300 22.531775 1.952000 # Cg 
318 106 11 -0.325600 26.017300 22.531775 0.792000 # Og 
319 107 11 -0.325600 26.017300 22.531775 3.508000 # Og 
320 107 5 0.651200 26.017300 22.531775 2.348000 # Cg 
321 107 11 -0.325600 26.017300 22.531775 1.188000 # Og 
322 108 11 -0.325600 26.017300 22.531775 3.904000 # Og 
323 108 5 0.651200 26.017300 22.531775 2.744000 # Cg 
324 108 11 -0.325600 26.017300 22.531775 1.584000 # Og 
325 109 11 -0.325600 26.017300 22.531775 4.299000 # Og 
326 109 5 0.651200 26.017300 22.531775 3.139000 # Cg 
327 109 11 -0.325600 26.017300 22.531775 1.979000 # Og 
328 110 11 -0.325600 26.017300 22.531775 4.695000 # Og 
329 110 5 0.651200 26.017300 22.531775 3.535000 # Cg 
330 110 11 -0.325600 26.017300 22.531775 2.375000 # Og 
331 111 11 -0.325600 26.017300 22.531775 5.091000 # Og 
332 111 5 0.651200 26.017300 22.531775 3.931000 # Cg 
333 111 11 -0.325600 26.017300 22.531775 2.771000 # Og 
334 112 11 -0.325600 26.017300 22.531775 5.487000 # Og 
335 112 5 0.651200 26.017300 22.531775 4.327000 # Cg 
336 112 11 -0.325600 26.017300 22.531775 3.167000 # Og 
337 113 11 -0.325600 26.017300 22.531775 5.883000 # Og 
338 113 5 0.651200 26.017300 22.531775 4.723000 # Cg 
339 113 11 -0.325600 26.017300 22.531775 3.563000 # Og 
340 114 11 -0.325600 26.017300 22.531775 6.279000 # Og 
341 114 5 0.651200 26.017300 22.531775 5.119000 # Cg 
342 114 11 -0.325600 26.017300 22.531775 3.959000 # Og 
343 115 11 -0.325600 26.017300 22.531775 6.675000 # Og 
344 115 5 0.651200 26.017300 22.531775 5.515000 # Cg 
345 115 11 -0.325600 26.017300 22.531775 4.355000 # Og 
346 116 11 -0.325600 26.017300 22.531775 7.071000 # Og 
347 116 5 0.651200 26.017300 22.531775 5.911000 # Cg 
348 116 11 -0.325600 26.017300 22.531775 4.751000 # Og 
349 117 11 -0.325600 26.017300 22.531775 7.466000 # Og 
350 117 5 0.651200 26.017300 22.531775 6.306000 # Cg 
351 117 11 -0.325600 26.017300 22.531775 5.146000 # Og 
352 118 11 -0.325600 26.017300 22.531775 7.862000 # Og 
353 118 5 0.651200 26.017300 22.531775 6.702000 # Cg 
354 118 11 -0.325600 26.017300 22.531775 5.542000 # Og 
355 119 11 -0.325600 26.017300 22.531775 8.258000 # Og 
356 119 5 0.651200 26.017300 22.531775 7.098000 # Cg 
357 119 11 -0.325600 26.017300 22.531775 5.938000 # Og 
358 120 11 -0.325600 26.017300 22.531775 8.654000 # Og 
359 120 5 0.651200 26.017300 22.531775 7.494000 # Cg 
360 120 11 -0.325600 26.017300 22.531775 6.334000 # Og 
361 121 11 -0.325600 26.017300 22.531775 9.050000 # Og 
362 121 5 0.651200 26.017300 22.531775 7.890000 # Cg 
363 121 11 -0.325600 26.017300 22.531775 6.730000 # Og 
364 122 11 -0.325600 26.017300 22.531775 9.446000 # Og 
365 122 5 0.651200 26.017300 22.531775 8.286000 # Cg 
366 122 11 -0.325600 26.017300 22.531775 7.126000 # Og 
367 123 11 -0.325600 26.017300 22.531775 9.842000 # Og 
368 123 5 0.651200 26.017300 22.531775 8.682000 # Cg 
369 123 11 -0.325600 26.017300 22.531775 7.522000 # Og 
370 124 11 -0.325600 26.017300 22.531775 10.238000 # Og 
371 124 5 0.651200 26.017300 22.531775 9.078000 # Cg 
372 124 11 -0.325600 26.017300 22.531775 7.918000 # Og 
373 125 11 -0.325600 26.017300 22.531775 10.633000 # Og 
374 125 5 0.651200 26.017300 22.531775 9.473000 # Cg 
375 125 11 -0.325600 26.017300 22.531775 8.313000 # Og 
376 126 11 -0.325600 26.017300 22.531775 11.029000 # Og 
377 126 5 0.651200 26.017300 22.531775 9.869000 # Cg 
378 126 11 -0.325600 26.017300 22.531775 8.709000 # Og 
379 127 11 -0.325600 26.017300 22.531775 11.425000 # Og 
380 127 5 0.651200 26.017300 22.531775 10.265000 # Cg 
381 127 11 -0.325600 26.017300 22.531775 9.105000 # Og 
382 128 11 -0.325600 26.017300 22.531775 11.821000 # Og 
383 128 5 0.651200 26.017300 22.531775 10.661000 # Cg 
384 128 11 -0.325600 26.017300 22.531775 9.501000 # Og 
385 129 11 -0.325600 26.017300 22.531775 12.217000 # Og 
386 129 5 0.651200 26.017300 22.531775 11.057000 # Cg 
387 129 11 -0.325600 26.017300 22.531775 9.897000 # Og 
388 130 11 -0.325600 26.017300 22.531775 12.613000 # Og 
389 130 5 0.651200 26.017300 22.531775 11.453000 # Cg 
390 130 11 -0.325600 26.017300 22.531775 10.293000 # Og 
391 131 11 -0.325600 26.017300 22.531775 13.009000 # Og 
392 131 5 0.651200 26.017300 22.531775 11.849000 # Cg 
393 131 11 -0.325600 26.017300 22.531775 10.689000 # Og 
394 132 11 -0.325600 26.017300 22.531775 13.405000 # Og 
395 132 5 0.651200 26.017300 22.531775 12.245000 # Cg 
396 132 11 -0.325600 26.017300 22.531775 11.085000 # Og 
397 133 11 -0.325600 26.017300 22.531775 13.800000 # Og 
398 133 5 0.651200 26.017300 22.531775 12.640000 # Cg 
399 133 11 -0.325600 26.017300 22.531775 11.480000 # Og 
400 134 11 -0.325600 26.017300 22.531775 14.196000 # Og 
401 134 5 0.651200 26.017300 22.531775 13.036000 # Cg 
402 134 11 -0.325600 26.017300 22.531775 11.876000 # Og 
403 135 11 -0.325600 26.017300 22.531775 14.592000 # Og 
404 135 5 0.651200 26.017300 22.531775 13.432000 # Cg 
405 135 11 -0.325600 26.017300 22.531775 12.272000 # Og 
406 136 11 -0.325600 26.017300 22.531775 14.988000 # Og 
407 136 5 0.651200 26.017300 22.531775 13.828000 # Cg 
408 136 11 -0.325600 26.017300 22.531775 12.668000 # Og 
409 137 11 -0.325600 26.017300 22.531775 15.384000 # Og 
410 137 5 0.651200 26.017300 22.531775 14.224000 # Cg 
411 137 11 -0.325600 26.017300 22.531775 13.064000 # Og 
412 138 11 -0.325600 26.017300 22.531775 15.780000 # Og 
413 138 5 0.651200 26.017300 22.531775 14.620000 # Cg 
414 138 11 -0.325600 26.017300 22.531775 13.460000 # Og 
415 139 11 -0.325600 13.008301 45.062775 16.175999 # Og 
416 139 5 0.651200 13.008301 45.062775 15.016000 # Cg 
417 139 11 -0.325600 13.008301 45.062775 13.856000 # Og 
418 140 11 -0.325600 13.008301 45.062775 16.571999 # Og 
419 140 5 0.651200 13.008301 45.062775 15.412000 # Cg 
420 140 11 -0.325600 13.008301 45.062775 14.252000 # Og 
421 141 11 -0.325600 13.008301 45.062775 16.968000 # Og 
422 141 5 0.651200 13.008301 45.062775 15.808000 # Cg 
423 141 11 -0.325600 13.008301 45.062775 14.648000 # Og 
424 142 11 -0.325600 13.008301 45.062775 17.364000 # Og 
425 142 5 0.651200 13.008301 45.062775 16.203999 # Cg 
426 142 11 -0.325600 13.008301 45.062775 15.044000 # Og 
427 143 11 -0.325600 13.008301 45.062775 17.760000 # Og 
428 143 5 0.651200 13.008301 45.062775 16.600000 # Cg 
429 143 11 -0.325600 13.008301 45.062775 15.440000 # Og 
430 144 11 -0.325600 13.008301 45.062775 18.156000 # Og 
431 144 5 0.651200 13.008301 45.062775 16.996000 # Cg 
432 144 11 -0.325600 13.008301 45.062775 15.836000 # Og 
433 145 11 -0.325600 13.008301 45.062775 18.550999 # Og 
434 145 5 0.651200 13.008301 45.062775 17.390999 # Cg 
435 145 11 -0.325600 13.008301 45.062775 16.230999 # Og 
436 146 11 -0.325600 13.008301 45.062775 18.946999 # Og 
437 146 5 0.651200 13.008301 45.062775 17.786999 # Cg 
438 146 11 -0.325600 13.008301 45.062775 16.626999 # Og 
439 147 11 -0.325600 13.008301 45.062775 19.343000 # Og 
440 147 5 0.651200 13.008301 45.062775 18.182999 # Cg 
441 147 11 -0.325600 13.008301 45.062775 17.022999 # Og 
442 148 11 -0.325600 13.008301 45.062775 19.739000 # Og 
443 148 5 0.651200 13.008301 45.062775 18.578999 # Cg 
444 148 11 -0.325600 13.008301 45.062775 17.418999 # Og 
445 149 11 -0.325600 13.008301 45.062775 20.135000 # Og 
446 149 5 0.651200 13.008301 45.062775 18.975000 # Cg 
447 149 11 -0.325600 13.008301 45.062775 17.814999 # Og 
448 150 11 -0.325600 13.008301 45.062775 20.531000 # Og 
449 150 5 0.651200 13.008301 45.062775 19.371000 # Cg 
450 150 11 -0.325600 13.008301 45.062775 18.211000 # Og 
451 151 11 -0.325600 13.008301 45.062775 20.927000 # Og 
452 151 5 0.651200 13.008301 45.062775 19.767000 # Cg 
453 151 11 -0.325600 13.008301 45.062775 18.607000 # Og 
454 152 11 -0.325600 13.008301 45.062775 21.323000 # Og 
455 152 5 0.651200 13.008301 45.062775 20.163000 # Cg 
456 152 11 -0.325600 13.008301 45.062775 19.003000 # Og 
457 153 11 -0.325600 13.008301 45.062775 21.718000 # Og 
458 153 5 0.651200 13.008301 45.062775 20.558001 # Cg 
459 153 11 -0.325600 13.008301 45.062775 19.397999 # Og 
460 154 11 -0.325600 13.008301 45.062775 22.114000 # Og 
461 154 5 0.651200 13.008301 45.062775 20.954000 # Cg 
462 154 11 -0.325600 13.008301 45.062775 19.794001 # Og 
463 155 11 -0.325600 13.008301 45.062775 22.510000 # Og 
464 155 5 0.651200 13.008301 45.062775 21.350000 # Cg 
465 155 11 -0.325600 13.008301 45.062775 20.190001 # Og 
466 156 11 -0.325600 13.008301 45.062775 22.906000 # Og 
467 156 5 0.651200 13.008301 45.062775 21.746000 # Cg 
468 156 11 -0.325600 13.008301 45.062775 20.586000 # Og 
469 157 11 -0.325600 13.008301 45.062775 23.302000 # Og 
470 157 5 0.651200 13.008301 45.062775 22.142000 # Cg 
471 157 11 -0.325600 13.008301 45.062775 20.982000 # Og 
472 158 11 -0.325600 13.008301 45.062775 23.698000 # Og 
473 158 5 0.651200 13.008301 45.062775 22.538000 # Cg 
474 158 11 -0.325600 13.008301 45.062775 21.378000 # Og 
475 159 11 -0.325600 13.008301 45.062775 24.094000 # Og 
476 159 5 0.651200 13.008301 45.062775 22.934000 # Cg 
477 159 11 -0.325600 13.008301 45.062775 21.774000 # Og 
478 160 11 -0.325600 13.008301 45.062775 24.490000 # Og 
479 160 5 0.651200 13.008301 45.062775 23.330000 # Cg 
480 160 11 -0.325600 13.008301 45.062775 22.170000 # Og 
481 161 11 -0.325600 13.008301 45.062775 24.885000 # Og 
482 161 5 0.651200 13.008301 45.062775 23.725000 # Cg 
483 161 11 -0.325600 13.008301 45.062775 22.565001 # Og 
484 162 11 -0.325600 13.008301 45.062775 25.281000 # Og 
485 162 5 0.651200 13.008301 45.062775 24.121000 # Cg 
486 162 11 -0.325600 13.008301 45.062775 22.961000 # Og 
487 163 11 -0.325600 13.008301 45.062775 25.677000 # Og 
488 163 5 0.651200 13.008301 45.062775 24.517000 # Cg 
489 163 11 -0.325600 13.008301 45.062775 23.357000 # Og 
490 164 11 -0.325600 13.008301 45.062775 26.073000 # Og 
491 164 5 0.651200 13.008301 45.062775 24.913000 # Cg 
492 164 11 -0.325600 13.008301 45.062775 23.753000 # Og 
493 165 11 -0.325600 13.008301 45.062775 26.469000 # Og 
494 165 5 0.651200 13.008301 45.062775 25.309000 # Cg 
495 165 11 -0.325600 13.008301 45.062775 24.149000 # Og 
496 166 11 -0.325600 13.008301 45.062775 26.865000 # Og 
497 166 5 0.651200 13.008301 45.062775 25.705000 # Cg 
498 166 11 -0.325600 13.008301 45.062775 24.545000 # Og 
499 167 11 -0.325600 13.008301 45.062775 27.261000 # Og 
500 167 5 0.651200 13.008301 45.062775 26.101000 # Cg 
501 167 11 -0.325600 13.008301 45.062775 24.941000 # Og 
502 168 11 -0.325600 13.008301 45.062775 0.341000 # Og 
503 168 5 0.651200 13.008301 45.062775 26.497000 # Cg 
504 168 11 -0.325600 13.008301 45.062775 25.337000 # Og 
505 169 11 -0.325600 13.008301 45.062775 0.736000 # Og 
506 169 5 0.651200 13.008301 45.062775 26.892000 # Cg 
507 169 11 -0.325600 13.008301 45.062775 25.732000 # Og 
508 170 11 -0.325600 13.008301 45.062775 1.132000 # Og 
509 170 5 0.651200 13.008301 45.062775 27.288000 # Cg 
510 170 11 -0.325600 13.008301 45.062775 26.128000 # Og 
511 171 11 -0.325600 13.008301 45.062775 1.528000 # Og 
512 171 5 0.651200 13.008301 45.062775 0.368000 # Cg 
513 171 11 -0.325600 13.008301 45.062775 26.524000 # Og 
514 172 11 -0.325600 13.008301 45.062775 1.924000 # Og 
515 172 5 0.651200 13.008301 45.062775 0.764000 # Cg 
516 172 11 -0.325600 13.008301 45.062775 26.920000 # Og 
517 173 11 -0.325600 13.008301 45.062775 2.320000 # Og 
518 173 5 0.651200 13.008301 45.062775 1.160000 # Cg 
519 173 11 -0.325600 13.008301 45.062775 0.000000 # Og 
520 174 11 -0.325600 13.008301 45.062775 2.716000 # Og 
521 174 5 0.651200 13.008301 45.062775 1.556000 # Cg 
522 174 11 -0.325600 13.008301 45.062775 0.396000 # Og 
523 175 11 -0.325600 13.008301 45.062775 3.112000 # Og 
524 175 5 0.651200 13.008301 45.062775 1.952000 # Cg 
525 175 11 -0.325600 13.008301 45.062775 0.792000 # Og 
526 176 11 -0.325600 13.008301 45.062775 3.508000 # Og 
527 176 5 0.651200 13.008301 45.062775 2.348000 # Cg 
528 176 11 -0.325600 13.008301 45.062775 1.188000 # Og 
529 177 11 -0.325600 13.008301 45.062775 3.904000 # Og 
530 177 5 0.651200 13.008301 45.062775 2.744000 # Cg 
531 177 11 -0.325600 13.008301 45.062775 1.584000 # Og 