LAMMPS data file. CGCMM style. atom_style full generated by VMD/TopoTools v1.5 on Tue May 02 12:05:40 PDT 2017
 2658 atoms
 0 bonds
 0 angles
 0 dihedrals
 0 impropers
 10 atom types
 0 bond types
 0 angle types
 0 dihedral types
 0 improper types
 0.451838 52.642840  xlo xhi
 0.325101 45.523500  ylo yhi
 -0.407500 27.119741  zlo zhi

# Pair Coeffs
#
# 1  CH4
# 2  Ca
# 3  Cb
# 4  Cc
# 5  Cd
# 6  H
# 7  Oa
# 8  Ob
# 9  Oc
# 10  Zn

 Masses

 1 16.040001 # CH4
 2 12.011000 # Ca
 3 12.011000 # Cb
 4 12.011000 # Cc
 5 12.011000 # Cd
 6 1.008000 # H
 7 15.999000 # Oa
 8 15.999000 # Ob
 9 15.999000 # Oc
 10 65.379997 # Zn

 Atoms

1 1 1 0.000000 52.190678 45.197601 14.573000 # CH4 
2 2 1 0.000000 52.190678 45.197601 16.192001 # CH4 
3 3 1 0.000000 52.190678 45.197601 17.812000 # CH4 
4 4 1 0.000000 52.190678 45.197601 19.431000 # CH4 
5 5 1 0.000000 52.190678 45.197601 21.049999 # CH4 
6 6 1 0.000000 52.190678 45.197601 22.669001 # CH4 
7 7 1 0.000000 52.190678 45.197601 24.289001 # CH4 
8 8 1 0.000000 52.190678 45.197601 25.908001 # CH4 
9 9 1 0.000000 52.190678 45.197601 0.000000 # CH4 
10 10 1 0.000000 52.190678 45.197601 1.619000 # CH4 
11 11 1 0.000000 52.190678 45.197601 3.238000 # CH4 
12 12 1 0.000000 52.190678 45.197601 4.858000 # CH4 
13 13 1 0.000000 52.190678 45.197601 6.477000 # CH4 
14 14 1 0.000000 52.190678 45.197601 8.096000 # CH4 
15 15 1 0.000000 52.190678 45.197601 9.715000 # CH4 
16 16 1 0.000000 52.190678 45.197601 11.335000 # CH4 
17 17 1 0.000000 52.190678 45.197601 12.954000 # CH4 
18 18 1 0.000000 52.190678 22.599600 14.573000 # CH4 
19 19 1 0.000000 52.190678 22.599600 16.192001 # CH4 
20 20 1 0.000000 52.190678 22.599600 17.812000 # CH4 
21 21 1 0.000000 52.190678 22.599600 19.431000 # CH4 
22 22 1 0.000000 52.190678 22.599600 21.049999 # CH4 
23 23 1 0.000000 52.190678 22.599600 22.669001 # CH4 
24 24 1 0.000000 52.190678 22.599600 24.289001 # CH4 
25 25 1 0.000000 52.190678 22.599600 25.908001 # CH4 
26 26 1 0.000000 52.190678 22.599600 0.000000 # CH4 
27 27 1 0.000000 52.190678 22.599600 1.619000 # CH4 
28 28 1 0.000000 52.190678 22.599600 3.238000 # CH4 
29 29 1 0.000000 52.190678 22.599600 4.858000 # CH4 
30 30 1 0.000000 52.190678 22.599600 6.477000 # CH4 
31 31 1 0.000000 52.190678 22.599600 8.096000 # CH4 
32 32 1 0.000000 52.190678 22.599600 9.715000 # CH4 
33 33 1 0.000000 52.190678 22.599600 11.335000 # CH4 
34 34 1 0.000000 52.190678 22.599600 12.954000 # CH4 
35 35 1 0.000000 26.095676 45.197601 14.573000 # CH4 
36 36 1 0.000000 26.095676 45.197601 16.192001 # CH4 
37 37 1 0.000000 26.095676 45.197601 17.812000 # CH4 
38 38 1 0.000000 26.095676 45.197601 19.431000 # CH4 
39 39 1 0.000000 26.095676 45.197601 21.049999 # CH4 
40 40 1 0.000000 26.095676 45.197601 22.669001 # CH4 
41 41 1 0.000000 26.095676 45.197601 24.289001 # CH4 
42 42 1 0.000000 26.095676 45.197601 25.908001 # CH4 
43 43 1 0.000000 26.095676 45.197601 0.000000 # CH4 
44 44 1 0.000000 26.095676 45.197601 1.619000 # CH4 
45 45 1 0.000000 26.095676 45.197601 3.238000 # CH4 
46 46 1 0.000000 26.095676 45.197601 4.858000 # CH4 
47 47 1 0.000000 26.095676 45.197601 6.477000 # CH4 
48 48 1 0.000000 26.095676 45.197601 8.096000 # CH4 
49 49 1 0.000000 26.095676 45.197601 9.715000 # CH4 
50 50 1 0.000000 26.095676 45.197601 11.335000 # CH4 
51 51 1 0.000000 26.095676 45.197601 12.954000 # CH4 
52 52 1 0.000000 26.095676 22.599600 14.573000 # CH4 
53 53 1 0.000000 26.095676 22.599600 16.192001 # CH4 
54 54 1 0.000000 26.095676 22.599600 17.812000 # CH4 
55 55 1 0.000000 26.095676 22.599600 19.431000 # CH4 
56 56 1 0.000000 26.095676 22.599600 21.049999 # CH4 
57 57 1 0.000000 26.095676 22.599600 22.669001 # CH4 
58 58 1 0.000000 26.095676 22.599600 24.289001 # CH4 
59 59 1 0.000000 26.095676 22.599600 25.908001 # CH4 
60 60 1 0.000000 26.095676 22.599600 0.000000 # CH4 
61 61 1 0.000000 26.095676 22.599600 1.619000 # CH4 
62 62 1 0.000000 26.095676 22.599600 3.238000 # CH4 
63 63 1 0.000000 26.095676 22.599600 4.858000 # CH4 
64 64 1 0.000000 26.095676 22.599600 6.477000 # CH4 
65 65 1 0.000000 26.095676 22.599600 8.096000 # CH4 
66 66 1 0.000000 26.095676 22.599600 9.715000 # CH4 
67 67 10 0.000000 5.331000 7.994000 21.569241 # Zn LIG
68 67 10 0.000000 18.378000 30.594000 21.569241 # Zn LIG
69 67 10 0.000000 31.426001 7.994000 21.569241 # Zn LIG
70 67 10 0.000000 44.473999 30.594000 21.569241 # Zn LIG
71 67 2 0.000000 5.724000 9.170000 18.988241 # Ca LIG
72 67 2 0.000000 18.771999 31.768999 18.988241 # Ca LIG
73 67 2 0.000000 31.819000 9.170000 18.988241 # Ca LIG
74 67 2 0.000000 44.867001 31.768999 18.988241 # Ca LIG
75 67 3 0.000000 6.104000 10.244000 18.040241 # Cb LIG
76 67 3 0.000000 19.150999 32.842999 18.040241 # Cb LIG
77 67 3 0.000000 32.199001 10.244000 18.040241 # Cb LIG
78 67 3 0.000000 45.247002 32.842999 18.040241 # Cb LIG
79 67 5 0.000000 6.937000 11.262000 18.520241 # Cd LIG
80 67 5 0.000000 19.983999 33.861000 18.520241 # Cd LIG
81 67 5 0.000000 33.032001 11.262000 18.520241 # Cd LIG
82 67 5 0.000000 46.080002 33.861000 18.520241 # Cd LIG
83 67 6 0.000000 7.258000 11.221000 19.558241 # H LIG
84 67 6 0.000000 20.306000 33.820000 19.558241 # H LIG
85 67 6 0.000000 33.353001 11.221000 19.558241 # H LIG
86 67 6 0.000000 46.401001 33.820000 19.558241 # H LIG
87 67 8 0.000000 6.191000 9.168000 20.176241 # Ob LIG
88 67 8 0.000000 19.238001 31.767000 20.176241 # Ob LIG
89 67 8 0.000000 32.285999 9.168000 20.176241 # Ob LIG
90 67 8 0.000000 45.334000 31.767000 20.176241 # Ob LIG
91 67 7 0.000000 4.915000 8.263000 18.567242 # Oa LIG
92 67 7 0.000000 17.962999 30.862000 18.567242 # Oa LIG
93 67 7 0.000000 31.010000 8.263000 18.567242 # Oa LIG
94 67 7 0.000000 44.057999 30.862000 18.567242 # Oa LIG
95 67 9 0.000000 8.191000 13.251000 18.306240 # Oc LIG
96 67 9 0.000000 21.238001 35.849998 18.306240 # Oc LIG
97 67 9 0.000000 34.285999 13.251000 18.306240 # Oc LIG
98 67 9 0.000000 47.334000 35.849998 18.306240 # Oc LIG
99 67 10 0.000000 4.258000 6.452000 19.275242 # Zn LIG
100 67 10 0.000000 17.306000 29.052000 19.275242 # Zn LIG
101 67 10 0.000000 30.353001 6.452000 19.275242 # Zn LIG
102 67 10 0.000000 43.401001 29.052000 19.275242 # Zn LIG
103 67 10 0.000000 3.459000 8.152000 23.863241 # Zn LIG
104 67 10 0.000000 16.507000 30.750999 23.863241 # Zn LIG
105 67 10 0.000000 29.554001 8.152000 23.863241 # Zn LIG
106 67 10 0.000000 42.602001 30.750999 23.863241 # Zn LIG
107 67 10 0.000000 7.717000 14.605000 19.721241 # Zn LIG
108 67 10 0.000000 20.764999 37.203999 19.721241 # Zn LIG
109 67 10 0.000000 33.812000 14.605000 19.721241 # Zn LIG
110 67 10 0.000000 46.860001 37.203999 19.721241 # Zn LIG
111 67 7 0.000000 4.698000 6.678000 23.155241 # Oa LIG
112 67 7 0.000000 17.746000 29.277000 23.155241 # Oa LIG
113 67 7 0.000000 30.794001 6.678000 23.155241 # Oa LIG
114 67 7 0.000000 43.841000 29.277000 23.155241 # Oa LIG
115 67 7 0.000000 3.434000 7.658000 20.861240 # Oa LIG
116 67 7 0.000000 16.482000 30.257000 20.861240 # Oa LIG
117 67 7 0.000000 29.530001 7.658000 20.861240 # Oa LIG
118 67 7 0.000000 42.577000 30.257000 20.861240 # Oa LIG
119 67 9 0.000000 4.857000 9.348000 22.984241 # Oc LIG
120 67 9 0.000000 17.905001 31.947001 22.984241 # Oc LIG
121 67 9 0.000000 30.952000 9.348000 22.984241 # Oc LIG
122 67 9 0.000000 44.000000 31.947001 22.984241 # Oc LIG
123 67 9 0.000000 5.667000 6.186000 20.690241 # Oc LIG
124 67 9 0.000000 18.715000 28.785000 20.690241 # Oc LIG
125 67 9 0.000000 31.763000 6.186000 20.690241 # Oc LIG
126 67 9 0.000000 44.810001 28.785000 20.690241 # Oc LIG
127 67 4 0.000000 5.670000 10.272000 23.559240 # Cc LIG
128 67 4 0.000000 18.718000 32.870998 23.559240 # Cc LIG
129 67 4 0.000000 31.764999 10.272000 23.559240 # Cc LIG
130 67 4 0.000000 44.813000 32.870998 23.559240 # Cc LIG
131 67 2 0.000000 7.324000 13.429000 22.302240 # Ca LIG
132 67 2 0.000000 20.371000 36.028000 22.302240 # Ca LIG
133 67 2 0.000000 33.418999 13.429000 22.302240 # Ca LIG
134 67 2 0.000000 46.466999 36.028000 22.302240 # Ca LIG
135 67 3 0.000000 6.944000 12.355000 23.250240 # Cb LIG
136 67 3 0.000000 19.992001 34.953999 23.250240 # Cb LIG
137 67 3 0.000000 33.039001 12.355000 23.250240 # Cb LIG
138 67 3 0.000000 46.087002 34.953999 23.250240 # Cb LIG
139 67 4 0.000000 7.378000 12.327000 17.730240 # Cc LIG
140 67 4 0.000000 20.424999 34.925999 17.730240 # Cc LIG
141 67 4 0.000000 33.473000 12.327000 17.730240 # Cc LIG
142 67 4 0.000000 46.521000 34.925999 17.730240 # Cc LIG
143 67 5 0.000000 6.111000 11.337000 22.770241 # Cd LIG
144 67 5 0.000000 19.159000 33.936001 22.770241 # Cd LIG
145 67 5 0.000000 32.206001 11.337000 22.770241 # Cd LIG
146 67 5 0.000000 45.254002 33.936001 22.770241 # Cd LIG
147 67 6 0.000000 5.790000 11.379000 21.732241 # H LIG
148 67 6 0.000000 18.837000 33.978001 21.732241 # H LIG
149 67 6 0.000000 31.885000 11.379000 21.732241 # H LIG
150 67 6 0.000000 44.932999 33.978001 21.732241 # H LIG
151 67 8 0.000000 6.857000 13.431000 21.113241 # Ob LIG
152 67 8 0.000000 19.905001 36.029999 21.113241 # Ob LIG
153 67 8 0.000000 32.952000 13.431000 21.113241 # Ob LIG
154 67 8 0.000000 46.000000 36.029999 21.113241 # Ob LIG
155 67 7 0.000000 8.133000 14.336000 22.723240 # Oa LIG
156 67 7 0.000000 21.180000 36.936001 22.723240 # Oa LIG
157 67 7 0.000000 34.228001 14.336000 22.723240 # Oa LIG
158 67 7 0.000000 47.276001 36.936001 22.723240 # Oa LIG
159 67 10 0.000000 8.790000 16.146999 22.015240 # Zn LIG
160 67 10 0.000000 21.837000 38.745998 22.015240 # Zn LIG
161 67 10 0.000000 34.884998 16.146999 22.015240 # Zn LIG
162 67 10 0.000000 47.932999 38.745998 22.015240 # Zn LIG
163 67 10 0.000000 9.589000 14.447000 17.427240 # Zn LIG
164 67 10 0.000000 22.636000 37.046001 17.427240 # Zn LIG
165 67 10 0.000000 35.683998 14.447000 17.427240 # Zn LIG
166 67 10 0.000000 48.731998 37.046001 17.427240 # Zn LIG
167 67 7 0.000000 8.349000 15.921000 18.135241 # Oa LIG
168 67 7 0.000000 21.396999 38.520000 18.135241 # Oa LIG
169 67 7 0.000000 34.445000 15.921000 18.135241 # Oa LIG
170 67 7 0.000000 47.492001 38.520000 18.135241 # Oa LIG
171 67 7 0.000000 9.613000 14.941000 20.429241 # Oa LIG
172 67 7 0.000000 22.660999 37.540001 20.429241 # Oa LIG
173 67 7 0.000000 35.709000 14.941000 20.429241 # Oa LIG
174 67 7 0.000000 48.756001 37.540001 20.429241 # Oa LIG
175 67 9 0.000000 7.380000 16.413000 20.600241 # Oc LIG
176 67 9 0.000000 20.427999 39.013000 20.600241 # Oc LIG
177 67 9 0.000000 33.476002 16.413000 20.600241 # Oc LIG
178 67 9 0.000000 46.522999 39.013000 20.600241 # Oc LIG
179 67 10 0.000000 8.790000 31.212999 19.721241 # Zn LIG
180 67 10 0.000000 21.837000 8.614000 19.721241 # Zn LIG
181 67 10 0.000000 34.884998 31.212999 19.721241 # Zn LIG
182 67 10 0.000000 47.932999 8.614000 19.721241 # Zn LIG
183 67 10 0.000000 9.589000 29.513000 22.015240 # Zn LIG
184 67 10 0.000000 22.636000 6.914000 22.015240 # Zn LIG
185 67 10 0.000000 35.683998 29.513000 22.015240 # Zn LIG
186 67 10 0.000000 48.731998 6.914000 22.015240 # Zn LIG
187 67 7 0.000000 9.613000 30.007000 18.135241 # Oa LIG
188 67 7 0.000000 22.660999 7.408000 18.135241 # Oa LIG
189 67 7 0.000000 35.709000 30.007000 18.135241 # Oa LIG
190 67 7 0.000000 48.756001 7.408000 18.135241 # Oa LIG
191 67 7 0.000000 8.349000 30.987000 22.723240 # Oa LIG
192 67 7 0.000000 21.396999 8.388000 22.723240 # Oa LIG
193 67 7 0.000000 34.445000 30.987000 22.723240 # Oa LIG
194 67 7 0.000000 47.492001 8.388000 22.723240 # Oa LIG
195 67 7 0.000000 4.698000 21.743999 20.861240 # Oa LIG
196 67 7 0.000000 17.746000 44.342999 20.861240 # Oa LIG
197 67 7 0.000000 30.794001 21.743999 20.861240 # Oa LIG
198 67 7 0.000000 43.841000 44.342999 20.861240 # Oa LIG
199 67 9 0.000000 5.667000 21.252001 18.396240 # Oc LIG
200 67 9 0.000000 18.715000 43.851002 18.396240 # Oc LIG
201 67 9 0.000000 31.763000 21.252001 18.396240 # Oc LIG
202 67 9 0.000000 44.810001 43.851002 18.396240 # Oc LIG
203 67 10 0.000000 4.258000 21.518000 23.863241 # Zn LIG
204 67 10 0.000000 17.306000 44.118000 23.863241 # Zn LIG
205 67 10 0.000000 30.353001 21.518000 23.863241 # Zn LIG
206 67 10 0.000000 43.401001 44.118000 23.863241 # Zn LIG
207 67 10 0.000000 8.790000 1.081000 17.427240 # Zn LIG
208 67 10 0.000000 21.837000 23.680000 17.427240 # Zn LIG
209 67 10 0.000000 34.884998 1.081000 17.427240 # Zn LIG
210 67 10 0.000000 47.932999 23.680000 17.427240 # Zn LIG
211 67 7 0.000000 8.349000 0.855000 20.429241 # Oa LIG
212 67 7 0.000000 21.396999 23.454000 20.429241 # Oa LIG
213 67 7 0.000000 34.445000 0.855000 20.429241 # Oa LIG
214 67 7 0.000000 47.492001 23.454000 20.429241 # Oa LIG
215 67 9 0.000000 7.380000 1.347000 22.894241 # Oc LIG
216 67 9 0.000000 20.427999 23.947001 22.894241 # Oc LIG
217 67 9 0.000000 33.476002 1.347000 22.894241 # Oc LIG
218 67 9 0.000000 46.522999 23.947001 22.894241 # Oc LIG
219 67 9 0.000000 4.857000 39.480000 18.396240 # Oc LIG
220 67 9 0.000000 17.905001 16.881001 18.396240 # Oc LIG
221 67 9 0.000000 30.952999 39.480000 18.396240 # Oc LIG
222 67 9 0.000000 44.000000 16.881001 18.396240 # Oc LIG
223 67 10 0.000000 5.331000 38.126999 23.863241 # Zn LIG
224 67 10 0.000000 18.378000 15.527000 23.863241 # Zn LIG
225 67 10 0.000000 31.426001 38.126999 23.863241 # Zn LIG
226 67 10 0.000000 44.473999 15.527000 23.863241 # Zn LIG
227 67 2 0.000000 5.724000 39.301998 21.282242 # Ca LIG
228 67 2 0.000000 18.771999 16.702999 21.282242 # Ca LIG
229 67 2 0.000000 31.819000 39.301998 21.282242 # Ca LIG
230 67 2 0.000000 44.867001 16.702999 21.282242 # Ca LIG
231 67 3 0.000000 6.104000 40.375999 20.334240 # Cb LIG
232 67 3 0.000000 19.150999 17.777000 20.334240 # Cb LIG
233 67 3 0.000000 32.199001 40.375999 20.334240 # Cb LIG
234 67 3 0.000000 45.247002 17.777000 20.334240 # Cb LIG
235 67 4 0.000000 5.670000 40.403999 18.972240 # Cc LIG
236 67 4 0.000000 18.718000 17.805000 18.972240 # Cc LIG
237 67 4 0.000000 31.764999 40.403999 18.972240 # Cc LIG
238 67 4 0.000000 44.813000 17.805000 18.972240 # Cc LIG
239 67 5 0.000000 6.937000 41.394001 20.814240 # Cd LIG
240 67 5 0.000000 19.983999 18.795000 20.814240 # Cd LIG
241 67 5 0.000000 33.032001 41.394001 20.814240 # Cd LIG
242 67 5 0.000000 46.080002 18.795000 20.814240 # Cd LIG
243 67 6 0.000000 7.258000 41.353001 21.852242 # H LIG
244 67 6 0.000000 20.306000 18.754000 21.852242 # H LIG
245 67 6 0.000000 33.353001 41.353001 21.852242 # H LIG
246 67 6 0.000000 46.401001 18.754000 21.852242 # H LIG
247 67 8 0.000000 6.191000 39.299999 22.470242 # Ob LIG
248 67 8 0.000000 19.238001 16.701000 22.470242 # Ob LIG
249 67 8 0.000000 32.285999 39.299999 22.470242 # Ob LIG
250 67 8 0.000000 45.334000 16.701000 22.470242 # Ob LIG
251 67 7 0.000000 4.915000 38.395000 20.861240 # Oa LIG
252 67 7 0.000000 17.962999 15.796000 20.861240 # Oa LIG
253 67 7 0.000000 31.010000 38.395000 20.861240 # Oa LIG
254 67 7 0.000000 44.057999 15.796000 20.861240 # Oa LIG
255 67 3 0.000000 6.944000 42.487000 18.662241 # Cb LIG
256 67 3 0.000000 19.992001 19.888000 18.662241 # Cb LIG
257 67 3 0.000000 33.039001 42.487000 18.662241 # Cb LIG
258 67 3 0.000000 46.087002 19.888000 18.662241 # Cb LIG
259 67 4 0.000000 7.378000 42.459000 20.024240 # Cc LIG
260 67 4 0.000000 20.424999 19.860001 20.024240 # Cc LIG
261 67 4 0.000000 33.473000 42.459000 20.024240 # Cc LIG
262 67 4 0.000000 46.521000 19.860001 20.024240 # Cc LIG
263 67 5 0.000000 6.111000 41.469002 18.182240 # Cd LIG
264 67 5 0.000000 19.159000 18.870001 18.182240 # Cd LIG
265 67 5 0.000000 32.206001 41.469002 18.182240 # Cd LIG
266 67 5 0.000000 45.254002 18.870001 18.182240 # Cd LIG
267 67 7 0.000000 8.133000 44.469002 18.135241 # Oa LIG
268 67 7 0.000000 21.180000 21.868999 18.135241 # Oa LIG
269 67 7 0.000000 34.228001 44.469002 18.135241 # Oa LIG
270 67 7 0.000000 47.276001 21.868999 18.135241 # Oa LIG
271 67 9 0.000000 8.191000 43.382999 20.600241 # Oc LIG
272 67 9 0.000000 21.238001 20.784000 20.600241 # Oc LIG
273 67 9 0.000000 34.285999 43.382999 20.600241 # Oc LIG
274 67 9 0.000000 47.334000 20.784000 20.600241 # Oc LIG
275 67 10 0.000000 7.717000 44.737000 22.015240 # Zn LIG
276 67 10 0.000000 20.764999 22.138000 22.015240 # Zn LIG
277 67 10 0.000000 33.812000 44.737000 22.015240 # Zn LIG
278 67 10 0.000000 46.860001 22.138000 22.015240 # Zn LIG
279 67 10 0.000000 9.589000 44.578999 19.721241 # Zn LIG
280 67 10 0.000000 22.636000 21.980000 19.721241 # Zn LIG
281 67 10 0.000000 35.683998 44.578999 19.721241 # Zn LIG
282 67 10 0.000000 48.731998 21.980000 19.721241 # Zn LIG
283 67 9 0.000000 5.667000 36.318001 22.984241 # Oc LIG
284 67 9 0.000000 18.715000 13.719000 22.984241 # Oc LIG
285 67 9 0.000000 31.763000 36.318001 22.984241 # Oc LIG
286 67 9 0.000000 44.810001 13.719000 22.984241 # Oc LIG
287 67 2 0.000000 7.324000 43.561001 17.714241 # Ca LIG
288 67 2 0.000000 20.371000 20.962000 17.714241 # Ca LIG
289 67 2 0.000000 33.418999 43.561001 17.714241 # Ca LIG
290 67 2 0.000000 46.466999 20.962000 17.714241 # Ca LIG
291 67 8 0.000000 6.857000 43.563999 23.407242 # Ob LIG
292 67 8 0.000000 19.905001 20.964001 23.407242 # Ob LIG
293 67 8 0.000000 32.952000 43.563999 23.407242 # Ob LIG
294 67 8 0.000000 46.000000 20.964001 23.407242 # Ob LIG
295 67 7 0.000000 9.613000 45.073002 22.723240 # Oa LIG
296 67 7 0.000000 22.660999 22.474001 22.723240 # Oa LIG
297 67 7 0.000000 35.709000 45.073002 22.723240 # Oa LIG
298 67 7 0.000000 48.756001 22.474001 22.723240 # Oa LIG
299 67 10 0.000000 3.459000 38.285000 19.275242 # Zn LIG
300 67 10 0.000000 16.507000 15.685000 19.275242 # Zn LIG
301 67 10 0.000000 29.554001 38.285000 19.275242 # Zn LIG
302 67 10 0.000000 42.602001 15.685000 19.275242 # Zn LIG
303 67 7 0.000000 4.698000 36.810001 18.567242 # Oa LIG
304 67 7 0.000000 17.746000 14.211000 18.567242 # Oa LIG
305 67 7 0.000000 30.794001 36.810001 18.567242 # Oa LIG
306 67 7 0.000000 43.841000 14.211000 18.567242 # Oa LIG
307 67 10 0.000000 4.258000 36.584999 21.569241 # Zn LIG
308 67 10 0.000000 17.306000 13.985000 21.569241 # Zn LIG
309 67 10 0.000000 30.353001 36.584999 21.569241 # Zn LIG
310 67 10 0.000000 43.401001 13.985000 21.569241 # Zn LIG
311 67 7 0.000000 3.434000 37.790001 23.155241 # Oa LIG
312 67 7 0.000000 16.482000 15.191000 23.155241 # Oa LIG
313 67 7 0.000000 29.530001 37.790001 23.155241 # Oa LIG
314 67 7 0.000000 42.577000 15.191000 23.155241 # Oa LIG
315 67 9 0.000000 2.523000 22.131001 22.984241 # Oc LIG
316 67 9 0.000000 15.571000 44.730999 22.984241 # Oc LIG
317 67 9 0.000000 28.618999 22.131001 22.984241 # Oc LIG
318 67 9 0.000000 41.666000 44.730999 22.984241 # Oc LIG
319 67 4 0.000000 1.317000 22.372999 23.559240 # Cc LIG
320 67 4 0.000000 14.364000 44.972000 23.559240 # Cc LIG
321 67 4 0.000000 27.412001 22.372999 23.559240 # Cc LIG
322 67 4 0.000000 40.459999 44.972000 23.559240 # Cc LIG
323 67 2 0.000000 10.803000 44.826000 22.302240 # Ca LIG
324 67 2 0.000000 23.851000 22.226999 22.302240 # Ca LIG
325 67 2 0.000000 36.898998 44.826000 22.302240 # Ca LIG
326 67 2 0.000000 49.945999 22.226999 22.302240 # Ca LIG
327 67 3 0.000000 11.923000 45.034000 23.250240 # Cb LIG
328 67 3 0.000000 24.971001 22.434999 23.250240 # Cb LIG
329 67 3 0.000000 38.019001 45.034000 23.250240 # Cb LIG
330 67 3 0.000000 51.066002 22.434999 23.250240 # Cb LIG
331 67 5 0.000000 0.174000 22.223000 22.770241 # Cd LIG
332 67 5 0.000000 13.222000 44.821999 22.770241 # Cd LIG
333 67 5 0.000000 26.268999 22.223000 22.770241 # Cd LIG
334 67 5 0.000000 39.317001 44.821999 22.770241 # Cd LIG
335 67 6 0.000000 0.299000 21.924000 21.732241 # H LIG
336 67 6 0.000000 13.346000 44.522999 21.732241 # H LIG
337 67 6 0.000000 26.393999 21.924000 21.732241 # H LIG
338 67 6 0.000000 39.442001 44.522999 21.732241 # H LIG
339 67 8 0.000000 11.035000 44.421001 21.113241 # Ob LIG
340 67 8 0.000000 24.083000 21.822001 21.113241 # Ob LIG
341 67 8 0.000000 37.130001 44.421001 21.113241 # Ob LIG
342 67 8 0.000000 50.178001 21.822001 21.113241 # Ob LIG
343 67 4 0.000000 6.061000 35.152000 23.559240 # Cc LIG
344 67 4 0.000000 19.108999 12.553000 23.559240 # Cc LIG
345 67 4 0.000000 32.155998 35.152000 23.559240 # Cc LIG
346 67 4 0.000000 45.203999 12.553000 23.559240 # Cc LIG
347 67 2 0.000000 7.968000 32.140999 22.302240 # Ca LIG
348 67 2 0.000000 21.016001 9.542000 22.302240 # Ca LIG
349 67 2 0.000000 34.063999 32.140999 22.302240 # Ca LIG
350 67 2 0.000000 47.111000 9.542000 22.302240 # Ca LIG
351 67 3 0.000000 7.228000 33.007000 23.250240 # Cb LIG
352 67 3 0.000000 20.275999 10.408000 23.250240 # Cb LIG
353 67 3 0.000000 33.323002 33.007000 23.250240 # Cb LIG
354 67 3 0.000000 46.370998 10.408000 23.250240 # Cb LIG
355 67 5 0.000000 6.763000 34.237000 22.770241 # Cd LIG
356 67 5 0.000000 19.809999 11.638000 22.770241 # Cd LIG
357 67 5 0.000000 32.858002 34.237000 22.770241 # Cd LIG
358 67 5 0.000000 45.905998 11.638000 22.770241 # Cd LIG
359 67 6 0.000000 6.959000 34.494999 21.732241 # H LIG
360 67 6 0.000000 20.007000 11.896000 21.732241 # H LIG
361 67 6 0.000000 33.055000 34.494999 21.732241 # H LIG
362 67 6 0.000000 46.102001 11.896000 21.732241 # H LIG
363 67 8 0.000000 8.203000 32.543999 21.113241 # Ob LIG
364 67 8 0.000000 21.250999 9.945000 21.113241 # Ob LIG
365 67 8 0.000000 34.299000 32.543999 21.113241 # Ob LIG
366 67 8 0.000000 47.346001 9.945000 21.113241 # Ob LIG
367 67 9 0.000000 10.524000 30.600000 20.600241 # Oc LIG
368 67 9 0.000000 23.572001 8.001000 20.600241 # Oc LIG
369 67 9 0.000000 36.619999 30.600000 20.600241 # Oc LIG
370 67 9 0.000000 49.667000 8.001000 20.600241 # Oc LIG
371 67 2 0.000000 5.079000 35.655998 18.988241 # Ca LIG
372 67 2 0.000000 18.127001 13.057000 18.988241 # Ca LIG
373 67 2 0.000000 31.174999 35.655998 18.988241 # Ca LIG
374 67 2 0.000000 44.222000 13.057000 18.988241 # Ca LIG
375 67 3 0.000000 5.820000 34.790001 18.040241 # Cb LIG
376 67 3 0.000000 18.867001 12.191000 18.040241 # Cb LIG
377 67 3 0.000000 31.915001 34.790001 18.040241 # Cb LIG
378 67 3 0.000000 44.963001 12.191000 18.040241 # Cb LIG
379 67 5 0.000000 6.285000 33.560001 18.520241 # Cd LIG
380 67 5 0.000000 19.333000 10.961000 18.520241 # Cd LIG
381 67 5 0.000000 32.380001 33.560001 18.520241 # Cd LIG
382 67 5 0.000000 45.428001 10.961000 18.520241 # Cd LIG
383 67 6 0.000000 6.088000 33.301998 19.558241 # H LIG
384 67 6 0.000000 19.136000 10.703000 19.558241 # H LIG
385 67 6 0.000000 32.183998 33.301998 19.558241 # H LIG
386 67 6 0.000000 45.230999 10.703000 19.558241 # H LIG
387 67 8 0.000000 4.844000 35.252998 20.176241 # Ob LIG
388 67 8 0.000000 17.892000 12.654000 20.176241 # Ob LIG
389 67 8 0.000000 30.940001 35.252998 20.176241 # Ob LIG
390 67 8 0.000000 43.987000 12.654000 20.176241 # Ob LIG
391 67 9 0.000000 2.523000 37.198002 20.690241 # Oc LIG
392 67 9 0.000000 15.571000 14.598000 20.690241 # Oc LIG
393 67 9 0.000000 28.618999 37.198002 20.690241 # Oc LIG
394 67 9 0.000000 41.666000 14.598000 20.690241 # Oc LIG
395 67 8 0.000000 2.013000 38.443001 17.882240 # Ob LIG
396 67 8 0.000000 15.060000 15.843000 17.882240 # Ob LIG
397 67 8 0.000000 28.108000 38.443001 17.882240 # Ob LIG
398 67 8 0.000000 41.155998 15.843000 17.882240 # Ob LIG
399 67 2 0.000000 2.244000 38.036999 23.576241 # Ca LIG
400 67 2 0.000000 15.292000 15.438000 23.576241 # Ca LIG
401 67 2 0.000000 28.340000 38.036999 23.576241 # Ca LIG
402 67 2 0.000000 41.387001 15.438000 23.576241 # Ca LIG
403 67 3 0.000000 1.124000 37.828999 22.628241 # Cb LIG
404 67 3 0.000000 14.172000 15.230000 22.628241 # Cb LIG
405 67 3 0.000000 27.219999 37.828999 22.628241 # Cb LIG
406 67 3 0.000000 40.266998 15.230000 22.628241 # Cb LIG
407 67 4 0.000000 1.317000 37.438999 21.265240 # Cc LIG
408 67 4 0.000000 14.364000 14.840000 21.265240 # Cc LIG
409 67 4 0.000000 27.412001 37.438999 21.265240 # Cc LIG
410 67 4 0.000000 40.459999 14.840000 21.265240 # Cc LIG
411 67 5 0.000000 12.874000 15.442000 23.108240 # Cd LIG
412 67 5 0.000000 25.921000 38.041000 23.108240 # Cd LIG
413 67 5 0.000000 38.969002 15.442000 23.108240 # Cd LIG
414 67 5 0.000000 52.016998 38.041000 23.108240 # Cd LIG
415 67 6 0.000000 12.749000 15.741000 17.264240 # H LIG
416 67 6 0.000000 25.797001 38.341000 17.264240 # H LIG
417 67 6 0.000000 38.844002 15.741000 17.264240 # H LIG
418 67 6 0.000000 51.891998 38.341000 17.264240 # H LIG
419 67 2 0.000000 10.803000 14.694000 20.008240 # Ca LIG
420 67 2 0.000000 23.851000 37.292999 20.008240 # Ca LIG
421 67 2 0.000000 36.898998 14.694000 20.008240 # Ca LIG
422 67 2 0.000000 49.945999 37.292999 20.008240 # Ca LIG
423 67 3 0.000000 11.923000 14.902000 20.956242 # Cb LIG
424 67 3 0.000000 24.971001 37.500999 20.956242 # Cb LIG
425 67 3 0.000000 38.019001 14.902000 20.956242 # Cb LIG
426 67 3 0.000000 51.066002 37.500999 20.956242 # Cb LIG
427 67 4 0.000000 11.731000 15.292000 22.318241 # Cc LIG
428 67 4 0.000000 24.778000 37.890999 22.318241 # Cc LIG
429 67 4 0.000000 37.826000 15.292000 22.318241 # Cc LIG
430 67 4 0.000000 50.874001 37.890999 22.318241 # Cc LIG
431 67 5 0.000000 0.174000 37.289001 20.476242 # Cd LIG
432 67 5 0.000000 13.222000 14.690000 20.476242 # Cd LIG
433 67 5 0.000000 26.268999 37.289001 20.476242 # Cd LIG
434 67 5 0.000000 39.317001 14.690000 20.476242 # Cd LIG
435 67 6 0.000000 0.299000 36.990002 19.438240 # H LIG
436 67 6 0.000000 13.346000 14.391000 19.438240 # H LIG
437 67 6 0.000000 26.393999 36.990002 19.438240 # H LIG
438 67 6 0.000000 39.442001 14.391000 19.438240 # H LIG
439 67 8 0.000000 11.035000 14.289000 18.819241 # Ob LIG
440 67 8 0.000000 24.083000 36.888000 18.819241 # Ob LIG
441 67 8 0.000000 37.130001 14.289000 18.819241 # Ob LIG
442 67 8 0.000000 50.178001 36.888000 18.819241 # Ob LIG
443 67 9 0.000000 10.524000 15.534000 22.894241 # Oc LIG
444 67 9 0.000000 23.572001 38.132999 22.894241 # Oc LIG
445 67 9 0.000000 36.619999 15.534000 22.894241 # Oc LIG
446 67 9 0.000000 49.667000 38.132999 22.894241 # Oc LIG
447 67 8 0.000000 4.844000 5.121000 17.882240 # Ob LIG
448 67 8 0.000000 17.892000 27.719999 17.882240 # Ob LIG
449 67 8 0.000000 30.940001 5.121000 17.882240 # Ob LIG
450 67 8 0.000000 43.987000 27.719999 17.882240 # Ob LIG
451 67 9 0.000000 2.523000 7.065000 18.396240 # Oc LIG
452 67 9 0.000000 15.571000 29.664000 18.396240 # Oc LIG
453 67 9 0.000000 28.618999 7.065000 18.396240 # Oc LIG
454 67 9 0.000000 41.666000 29.664000 18.396240 # Oc LIG
455 67 2 0.000000 5.079000 5.524000 23.576241 # Ca LIG
456 67 2 0.000000 18.127001 28.122999 23.576241 # Ca LIG
457 67 2 0.000000 31.174999 5.524000 23.576241 # Ca LIG
458 67 2 0.000000 44.222000 28.122999 23.576241 # Ca LIG
459 67 3 0.000000 5.820000 4.658000 22.628241 # Cb LIG
460 67 3 0.000000 18.867001 27.257000 22.628241 # Cb LIG
461 67 3 0.000000 31.915001 4.658000 22.628241 # Cb LIG
462 67 3 0.000000 44.963001 27.257000 22.628241 # Cb LIG
463 67 4 0.000000 6.061000 5.020000 21.265240 # Cc LIG
464 67 4 0.000000 19.108999 27.618999 21.265240 # Cc LIG
465 67 4 0.000000 32.155998 5.020000 21.265240 # Cc LIG
466 67 4 0.000000 45.203999 27.618999 21.265240 # Cc LIG
467 67 5 0.000000 6.285000 3.428000 23.108240 # Cd LIG
468 67 5 0.000000 19.333000 26.027000 23.108240 # Cd LIG
469 67 5 0.000000 32.380001 3.428000 23.108240 # Cd LIG
470 67 5 0.000000 45.428001 26.027000 23.108240 # Cd LIG
471 67 6 0.000000 6.088000 3.170000 17.264240 # H LIG
472 67 6 0.000000 19.136000 25.768999 17.264240 # H LIG
473 67 6 0.000000 32.183998 3.170000 17.264240 # H LIG
474 67 6 0.000000 45.230999 25.768999 17.264240 # H LIG
475 67 2 0.000000 7.968000 2.009000 20.008240 # Ca LIG
476 67 2 0.000000 21.016001 24.608000 20.008240 # Ca LIG
477 67 2 0.000000 34.063999 2.009000 20.008240 # Ca LIG
478 67 2 0.000000 47.111000 24.608000 20.008240 # Ca LIG
479 67 3 0.000000 7.228000 2.875000 20.956242 # Cb LIG
480 67 3 0.000000 20.275999 25.474001 20.956242 # Cb LIG
481 67 3 0.000000 33.323002 2.875000 20.956242 # Cb LIG
482 67 3 0.000000 46.370998 25.474001 20.956242 # Cb LIG
483 67 4 0.000000 6.987000 2.513000 22.318241 # Cc LIG
484 67 4 0.000000 20.034000 25.112000 22.318241 # Cc LIG
485 67 4 0.000000 33.082001 2.513000 22.318241 # Cc LIG
486 67 4 0.000000 46.130001 25.112000 22.318241 # Cc LIG
487 67 5 0.000000 6.763000 4.105000 20.476242 # Cd LIG
488 67 5 0.000000 19.809999 26.704000 20.476242 # Cd LIG
489 67 5 0.000000 32.858002 4.105000 20.476242 # Cd LIG
490 67 5 0.000000 45.905998 26.704000 20.476242 # Cd LIG
491 67 6 0.000000 6.959000 4.363000 19.438240 # H LIG
492 67 6 0.000000 20.007000 26.962000 19.438240 # H LIG
493 67 6 0.000000 33.055000 4.363000 19.438240 # H LIG
494 67 6 0.000000 46.102001 26.962000 19.438240 # H LIG
495 67 8 0.000000 8.203000 2.412000 18.819241 # Ob LIG
496 67 8 0.000000 21.250999 25.011000 18.819241 # Ob LIG
497 67 8 0.000000 34.299000 2.412000 18.819241 # Ob LIG
498 67 8 0.000000 47.346001 25.011000 18.819241 # Ob LIG
499 67 2 0.000000 2.244000 7.905000 21.282242 # Ca LIG
500 67 2 0.000000 15.292000 30.504000 21.282242 # Ca LIG
501 67 2 0.000000 28.340000 7.905000 21.282242 # Ca LIG
502 67 2 0.000000 41.387001 30.504000 21.282242 # Ca LIG
503 67 3 0.000000 1.124000 7.697000 20.334240 # Cb LIG
504 67 3 0.000000 14.172000 30.296000 20.334240 # Cb LIG
505 67 3 0.000000 27.219999 7.697000 20.334240 # Cb LIG
506 67 3 0.000000 40.266998 30.296000 20.334240 # Cb LIG
507 67 4 0.000000 1.317000 7.307000 18.972240 # Cc LIG
508 67 4 0.000000 14.364000 29.906000 18.972240 # Cc LIG
509 67 4 0.000000 27.412001 7.307000 18.972240 # Cc LIG
510 67 4 0.000000 40.459999 29.906000 18.972240 # Cc LIG
511 67 5 0.000000 12.874000 30.507999 20.814240 # Cd LIG
512 67 5 0.000000 25.921000 7.909000 20.814240 # Cd LIG
513 67 5 0.000000 38.969002 30.507999 20.814240 # Cd LIG
514 67 5 0.000000 52.016998 7.909000 20.814240 # Cd LIG
515 67 6 0.000000 12.749000 30.808001 21.852242 # H LIG
516 67 6 0.000000 25.797001 8.208000 21.852242 # H LIG
517 67 6 0.000000 38.844002 30.808001 21.852242 # H LIG
518 67 6 0.000000 51.891998 8.208000 21.852242 # H LIG
519 67 8 0.000000 2.013000 8.310000 22.470242 # Ob LIG
520 67 8 0.000000 15.060000 30.910000 22.470242 # Ob LIG
521 67 8 0.000000 28.108000 8.310000 22.470242 # Ob LIG
522 67 8 0.000000 41.155998 30.910000 22.470242 # Ob LIG