LAMMPS data file. CGCMM style. atom_style full generated by VMD/TopoTools v1.5 on Sun Mar 05 19:09:45 PST 2017
 1346 atoms
 0 bonds
 0 angles
 0 dihedrals
 0 impropers
 10 atom types
 0 bond types
 0 angle types
 0 dihedral types
 0 improper types
 0.439550 26.456750  xlo xhi
 0.332838 45.395937  ylo yhi
 -0.387750 26.927729  zlo zhi

# Pair Coeffs
#
# 1  CH4
# 2  Ca
# 3  Cb
# 4  Cc
# 5  Cd
# 6  H
# 7  Ni
# 8  Oa
# 9  Ob
# 10  Oc

 Masses

 1 16.040001 # CH4
 2 12.011000 # Ca
 3 12.011000 # Cb
 4 12.011000 # Cc
 5 12.011000 # Cd
 6 1.008000 # H
 7 58.693001 # Ni
 8 15.999000 # Oa
 9 15.999000 # Ob
 10 15.999000 # Oc

 Atoms

1 1 1 0.000000 26.017300 45.062775 14.708000 # CH4 
2 1 1 0.000000 26.017300 45.062775 16.809002 # CH4 
3 1 1 0.000000 26.017300 45.062775 18.910000 # CH4 
4 1 1 0.000000 26.017300 45.062775 21.011002 # CH4 
5 1 1 0.000000 26.017300 45.062775 23.113001 # CH4 
6 1 1 0.000000 26.017300 45.062775 25.214001 # CH4 
7 1 1 0.000000 26.017300 45.062775 0.000000 # CH4 
8 1 1 0.000000 26.017300 45.062775 2.101000 # CH4 
9 1 1 0.000000 26.017300 45.062775 4.202000 # CH4 
10 1 1 0.000000 26.017300 45.062775 6.304000 # CH4 
11 1 1 0.000000 26.017300 45.062775 8.405000 # CH4 
12 1 1 0.000000 26.017300 45.062775 10.506000 # CH4 
13 1 1 0.000000 26.017300 45.062775 12.607000 # CH4 
14 1 1 0.000000 26.017300 22.531775 14.708000 # CH4 
15 1 1 0.000000 26.017300 22.531775 16.809002 # CH4 
16 1 1 0.000000 26.017300 22.531775 18.910000 # CH4 
17 1 1 0.000000 26.017300 22.531775 21.011002 # CH4 
18 1 1 0.000000 26.017300 22.531775 23.113001 # CH4 
19 1 1 0.000000 26.017300 22.531775 25.214001 # CH4 
20 1 1 0.000000 26.017300 22.531775 0.000000 # CH4 
21 1 1 0.000000 26.017300 22.531775 2.101000 # CH4 
22 1 1 0.000000 26.017300 22.531775 4.202000 # CH4 
23 1 1 0.000000 26.017300 22.531775 6.304000 # CH4 
24 1 1 0.000000 26.017300 22.531775 8.405000 # CH4 
25 1 1 0.000000 26.017300 22.531775 10.506000 # CH4 
26 1 1 0.000000 26.017300 22.531775 12.607000 # CH4 
27 1 1 0.000000 13.008301 45.062775 14.708000 # CH4 
28 1 1 0.000000 13.008301 45.062775 16.809002 # CH4 
29 1 1 0.000000 13.008301 45.062775 18.910000 # CH4 
30 1 1 0.000000 13.008301 45.062775 21.011002 # CH4 
31 1 1 0.000000 13.008301 45.062775 23.113001 # CH4 
32 1 1 0.000000 13.008301 45.062775 25.214001 # CH4 
33 1 1 0.000000 13.008301 45.062775 0.000000 # CH4 
34 1 1 0.000000 13.008301 45.062775 2.101000 # CH4 
35 1 1 0.000000 13.008301 45.062775 4.202000 # CH4 
36 1 1 0.000000 13.008301 45.062775 6.304000 # CH4 
37 1 1 0.000000 13.008301 45.062775 8.405000 # CH4 
38 1 1 0.000000 13.008301 45.062775 10.506000 # CH4 
39 1 1 0.000000 13.008301 45.062775 12.607000 # CH4 
40 1 1 0.000000 13.008301 22.531775 14.708000 # CH4 
41 1 1 0.000000 13.008301 22.531775 16.809002 # CH4 
42 1 1 0.000000 13.008301 22.531775 18.910000 # CH4 
43 1 1 0.000000 13.008301 22.531775 21.011002 # CH4 
44 1 1 0.000000 13.008301 22.531775 23.113001 # CH4 
45 1 1 0.000000 13.008301 22.531775 25.214001 # CH4 
46 1 1 0.000000 13.008301 22.531775 0.000000 # CH4 
47 1 1 0.000000 13.008301 22.531775 2.101000 # CH4 
48 1 1 0.000000 13.008301 22.531775 4.202000 # CH4 
49 1 1 0.000000 13.008301 22.531775 6.304000 # CH4 
50 1 1 0.000000 13.008301 22.531775 8.405000 # CH4 
51 1 9 0.000000 23.941000 21.823999 20.945980 # Ob LIG
52 2 9 0.000000 10.932000 44.355999 20.945980 # Ob LIG
53 3 9 0.000000 23.941000 6.803000 23.221979 # Ob LIG
54 4 9 0.000000 10.932000 29.334000 23.221979 # Ob LIG
55 5 10 0.000000 23.514999 7.995000 20.491980 # Oc LIG
56 6 10 0.000000 10.506000 30.527000 20.491980 # Oc LIG
57 1 8 0.000000 22.554001 7.442000 18.022980 # Oa LIG
58 2 8 0.000000 9.546000 29.973000 18.022980 # Oa LIG
59 1 8 0.000000 22.554001 22.462999 22.575979 # Oa LIG
60 2 8 0.000000 9.546000 44.993999 22.575979 # Oa LIG
61 3 8 0.000000 21.304001 8.301000 22.575979 # Oa LIG
62 4 8 0.000000 8.295000 30.833000 22.575979 # Oa LIG
63 3 9 0.000000 21.164000 9.821000 20.945980 # Ob LIG
64 4 9 0.000000 8.155000 32.353001 20.945980 # Ob LIG
65 7 10 0.000000 21.184000 20.701000 20.491980 # Oc LIG
66 8 10 0.000000 8.176000 43.233002 20.491980 # Oc LIG
67 3 8 0.000000 21.184999 21.809999 18.022980 # Oa LIG
68 2 8 0.000000 8.176000 44.341000 18.022980 # Oa LIG
69 1 9 0.000000 19.938000 20.927999 23.221979 # Ob LIG
70 2 9 0.000000 6.930000 43.459999 23.221979 # Ob LIG
71 9 9 0.000000 19.087999 16.624001 22.302979 # Ob LIG
72 10 9 0.000000 6.079000 39.155998 22.302979 # Ob LIG
73 11 10 0.000000 18.681999 13.676000 22.756979 # Oc LIG
74 12 10 0.000000 5.673000 36.207001 22.756979 # Oc LIG
75 9 8 0.000000 17.841000 15.743000 20.672979 # Oa LIG
76 10 8 0.000000 4.833000 38.275002 20.672979 # Oa LIG
77 13 10 0.000000 17.841999 16.851000 18.204979 # Oc LIG
78 14 10 0.000000 4.833000 39.382999 18.204979 # Oc LIG
79 15 10 0.000000 10.506000 0.485000 18.214979 # Oc LIG
80 4 10 0.000000 23.514999 23.017000 18.214979 # Oc LIG
81 16 10 0.000000 10.506000 15.506000 22.767979 # Oc LIG
82 17 10 0.000000 23.514999 38.036999 22.767979 # Oc LIG
83 18 9 0.000000 10.932000 14.313000 18.668980 # Ob LIG
84 19 9 0.000000 23.941000 36.845001 18.668980 # Ob LIG
85 20 9 0.000000 15.085000 0.708000 20.026979 # Ob LIG
86 21 9 0.000000 2.076000 23.239000 20.026979 # Ob LIG
87 22 9 0.000000 15.085000 15.729000 17.750980 # Ob LIG
88 23 9 0.000000 2.077000 38.259998 17.750980 # Ob LIG
89 24 10 0.000000 15.511000 14.536000 20.480980 # Oc LIG
90 25 10 0.000000 2.503000 37.068001 20.480980 # Oc LIG
91 5 8 0.000000 16.471001 15.090000 22.948978 # Oa LIG
92 6 8 0.000000 3.463000 37.620998 22.948978 # Oa LIG
93 20 8 0.000000 16.471001 0.069000 18.396980 # Oa LIG
94 21 8 0.000000 3.463000 22.601000 18.396980 # Oa LIG
95 22 8 0.000000 17.722000 14.230000 18.396980 # Oa LIG
96 23 8 0.000000 4.713000 36.762001 18.396980 # Oa LIG
97 22 9 0.000000 17.862000 12.710000 20.026979 # Ob LIG
98 23 9 0.000000 4.853000 35.242001 20.026979 # Ob LIG
99 26 10 0.000000 17.841000 1.831000 20.480980 # Oc LIG
100 27 10 0.000000 4.833000 24.362000 20.480980 # Oc LIG
101 20 8 0.000000 17.841000 0.722000 22.948978 # Oa LIG
102 28 8 0.000000 4.833000 23.254000 22.948978 # Oa LIG
103 20 9 0.000000 19.087000 1.603000 17.750980 # Ob LIG
104 21 9 0.000000 6.079000 24.135000 17.750980 # Ob LIG
105 28 9 0.000000 19.938000 5.907000 18.668980 # Ob LIG
106 28 9 0.000000 6.930000 28.438999 18.668980 # Ob LIG
107 28 9 0.000000 2.076000 8.218000 22.302979 # Ob LIG
108 28 9 0.000000 15.085000 30.750000 22.302979 # Ob LIG
109 28 10 0.000000 2.503000 7.026000 18.204979 # Oc LIG
110 28 10 0.000000 15.511000 29.556999 18.204979 # Oc LIG
111 28 10 0.000000 2.503000 22.047001 22.756979 # Oc LIG
112 28 10 0.000000 15.511000 44.577999 22.756979 # Oc LIG
113 28 10 0.000000 20.344000 8.856000 18.215981 # Oc LIG
114 28 10 0.000000 7.336000 31.388000 18.215981 # Oc LIG
115 28 8 0.000000 21.184999 6.789000 20.299980 # Oa LIG
116 28 8 0.000000 8.176000 29.320000 20.299980 # Oa LIG
117 28 10 0.000000 21.184000 5.680000 22.767979 # Oc LIG
118 28 10 0.000000 8.176000 28.212000 22.767979 # Oc LIG
119 28 8 0.000000 3.463000 7.579000 20.672979 # Oa LIG
120 28 8 0.000000 16.471001 30.111000 20.672979 # Oa LIG
121 28 8 0.000000 4.713000 6.720000 22.948978 # Oa LIG
122 28 8 0.000000 17.722000 29.250999 22.948978 # Oa LIG
123 28 8 0.000000 4.713000 21.740999 20.672979 # Oa LIG
124 28 8 0.000000 17.722000 44.271999 20.672979 # Oa LIG
125 28 9 0.000000 4.853000 5.200000 17.750980 # Ob LIG
126 28 9 0.000000 17.862000 27.731001 17.750980 # Ob LIG
127 28 9 0.000000 4.853000 20.221001 22.302979 # Ob LIG
128 28 9 0.000000 17.862000 42.751999 22.302979 # Ob LIG
129 28 10 0.000000 4.833000 9.341000 22.756979 # Oc LIG
130 28 10 0.000000 17.841000 31.872999 22.756979 # Oc LIG
131 28 8 0.000000 4.833000 8.232000 18.396980 # Oa LIG
132 28 8 0.000000 17.841000 30.764000 18.396980 # Oa LIG
133 28 10 0.000000 5.673000 6.165000 20.480980 # Oc LIG
134 28 10 0.000000 18.681999 28.697001 20.480980 # Oc LIG
135 28 10 0.000000 5.673000 21.186001 18.204979 # Oc LIG
136 28 10 0.000000 18.681000 43.717999 18.204979 # Oc LIG
137 28 9 0.000000 6.079000 9.114000 20.026979 # Ob LIG
138 28 9 0.000000 19.087000 31.645000 20.026979 # Ob LIG
139 28 9 0.000000 6.930000 13.418000 20.945980 # Ob LIG
140 28 9 0.000000 19.938000 35.949001 20.945980 # Ob LIG
141 28 10 0.000000 7.336000 1.345000 22.767979 # Oc LIG
142 28 10 0.000000 20.344000 23.877001 22.767979 # Oc LIG
143 28 10 0.000000 7.336000 16.365999 20.491980 # Oc LIG
144 28 10 0.000000 20.344000 38.897999 20.491980 # Oc LIG
145 28 8 0.000000 8.176000 14.299000 22.575979 # Oa LIG
146 28 8 0.000000 21.184999 36.831001 22.575979 # Oa LIG
147 28 10 0.000000 8.176000 13.190000 18.214979 # Oc LIG
148 28 10 0.000000 21.184000 35.722000 18.214979 # Oc LIG
149 28 9 0.000000 8.155000 2.311000 18.668980 # Ob LIG
150 28 9 0.000000 21.164000 24.841999 18.668980 # Ob LIG
151 28 9 0.000000 8.155000 17.332001 23.221979 # Ob LIG
152 28 9 0.000000 21.164000 39.862999 23.221979 # Ob LIG
153 28 8 0.000000 8.296000 0.791000 20.299980 # Oa LIG
154 28 8 0.000000 21.304001 23.322001 20.299980 # Oa LIG
155 28 8 0.000000 8.295000 15.812000 18.022980 # Oa LIG
156 28 8 0.000000 21.304001 38.342999 18.022980 # Oa LIG
157 18 8 0.000000 9.546000 14.952000 20.299980 # Oa LIG
158 19 8 0.000000 22.554001 37.484001 20.299980 # Oa LIG
159 5 5 0.000000 25.868000 7.878000 20.672979 # Cd LIG
160 6 5 0.000000 12.860000 30.409000 20.672979 # Cd LIG
161 5 3 0.000000 24.879999 7.373000 18.527981 # Cb LIG
162 28 3 0.000000 11.871000 29.905001 18.527981 # Cb LIG
163 1 3 0.000000 24.879999 22.393999 23.080978 # Cb LIG
164 28 3 0.000000 11.871000 44.925999 23.080978 # Cb LIG
165 5 4 0.000000 24.708000 7.749000 19.900980 # Cc LIG
166 6 4 0.000000 11.699000 30.280001 19.900980 # Cc LIG
167 1 2 0.000000 23.745001 22.209999 22.137980 # Ca LIG
168 2 2 0.000000 10.736000 44.741001 22.137980 # Ca LIG
169 1 2 0.000000 23.745001 7.188000 17.585979 # Ca LIG
170 2 2 0.000000 10.736000 29.719999 17.585979 # Ca LIG
171 3 2 0.000000 20.927999 9.459000 22.137980 # Ca LIG
172 4 2 0.000000 7.919000 31.990999 22.137980 # Ca LIG
173 7 4 0.000000 20.374001 19.791000 19.900980 # Cc LIG
174 8 4 0.000000 7.365000 42.323002 19.900980 # Cc LIG
175 3 2 0.000000 20.370001 20.905001 17.585979 # Ca LIG
176 2 2 0.000000 7.361000 43.437000 17.585979 # Ca LIG
177 11 3 0.000000 20.201000 10.350000 23.080978 # Cb LIG
178 12 3 0.000000 7.192000 32.881001 23.080978 # Cb LIG
179 13 3 0.000000 19.962999 19.830000 18.527981 # Cb LIG
180 14 3 0.000000 6.954000 42.362000 18.527981 # Cb LIG
181 7 5 0.000000 19.905001 18.722000 20.672979 # Cd LIG
182 8 5 0.000000 6.897000 41.252998 20.672979 # Cd LIG
183 11 5 0.000000 19.757000 11.578000 22.575979 # Cd LIG
184 12 5 0.000000 6.749000 34.110001 22.575979 # Cd LIG
185 13 5 0.000000 19.120001 18.830999 18.022980 # Cd LIG
186 14 5 0.000000 6.112000 41.362999 18.022980 # Cd LIG
187 7 3 0.000000 19.063000 17.723000 20.167980 # Cb LIG
188 8 3 0.000000 6.055000 40.254002 20.167980 # Cb LIG
189 11 4 0.000000 19.065001 12.519000 23.347980 # Cc LIG
190 12 4 0.000000 6.056000 35.050999 23.347980 # Cc LIG
191 9 2 0.000000 18.656000 16.646999 21.110979 # Ca LIG
192 10 2 0.000000 5.647000 39.179001 21.110979 # Ca LIG
193 13 4 0.000000 18.652000 17.761000 18.795979 # Cc LIG
194 14 4 0.000000 5.643000 40.292999 18.795979 # Cc LIG
195 28 5 0.000000 0.149000 7.143000 18.022980 # Cd LIG
196 28 5 0.000000 13.157000 29.674999 18.022980 # Cd LIG
197 28 5 0.000000 0.149000 22.164000 22.575979 # Cd LIG
198 28 5 0.000000 13.157000 44.695999 22.575979 # Cd LIG
199 28 3 0.000000 1.137000 7.648000 20.167980 # Cb LIG
200 6 3 0.000000 14.146000 30.179001 20.167980 # Cb LIG
201 28 4 0.000000 1.309000 22.292999 23.347980 # Cc LIG
202 28 4 0.000000 14.318000 44.825001 23.347980 # Cc LIG
203 28 4 0.000000 1.309000 7.272000 18.795979 # Cc LIG
204 28 4 0.000000 14.318000 29.804001 18.795979 # Cc LIG
205 18 2 0.000000 10.736000 14.699000 19.861980 # Ca LIG
206 19 2 0.000000 23.745001 37.230000 19.861980 # Ca LIG
207 16 4 0.000000 11.699000 15.259000 22.176979 # Cc LIG
208 17 4 0.000000 24.708000 37.791000 22.176979 # Cc LIG
209 15 4 0.000000 11.699000 0.238000 17.624979 # Cc LIG
210 4 4 0.000000 24.708000 22.770000 17.624979 # Cc LIG
211 24 3 0.000000 11.871000 14.884000 20.804979 # Cb LIG
212 17 3 0.000000 24.879999 37.415001 20.804979 # Cb LIG
213 15 5 0.000000 12.860000 0.367000 18.396980 # Cd LIG
214 4 5 0.000000 25.868999 22.899000 18.396980 # Cd LIG
215 16 5 0.000000 12.860000 15.388000 22.949980 # Cd LIG
216 17 5 0.000000 25.868000 37.919998 22.949980 # Cd LIG
217 24 5 0.000000 13.157000 14.654000 20.299980 # Cd LIG
218 25 5 0.000000 0.149000 37.185001 20.299980 # Cd LIG
219 16 3 0.000000 14.146000 15.158000 22.443979 # Cb LIG
220 25 3 0.000000 1.137000 37.689999 22.443979 # Cb LIG
221 15 3 0.000000 14.146000 0.137000 17.891979 # Cb LIG
222 21 3 0.000000 1.137000 22.669001 17.891979 # Cb LIG
223 24 4 0.000000 14.318000 14.783000 21.071980 # Cc LIG
224 25 4 0.000000 1.309000 37.313999 21.071980 # Cc LIG
225 20 2 0.000000 15.281000 0.322000 18.834980 # Ca LIG
226 21 2 0.000000 2.272000 22.854000 18.834980 # Ca LIG
227 5 2 0.000000 15.281000 15.343000 23.386980 # Ca LIG
228 6 2 0.000000 2.272000 37.875000 23.386980 # Ca LIG
229 22 2 0.000000 18.098000 13.072000 18.833981 # Ca LIG
230 23 2 0.000000 5.089000 35.604000 18.833981 # Ca LIG
231 26 4 0.000000 18.652000 2.740000 21.071980 # Cc LIG
232 27 4 0.000000 5.643000 25.271999 21.071980 # Cc LIG
233 20 2 0.000000 18.656000 1.626000 23.386980 # Ca LIG
234 28 2 0.000000 5.647000 24.158001 23.386980 # Ca LIG
235 28 3 0.000000 18.825001 12.182000 17.891979 # Cb LIG
236 28 3 0.000000 5.816000 34.714001 17.891979 # Cb LIG
237 28 3 0.000000 19.063000 2.701000 22.443979 # Cb LIG
238 28 3 0.000000 6.055000 25.233000 22.443979 # Cb LIG
239 26 5 0.000000 19.120001 3.810000 20.299980 # Cd LIG
240 27 5 0.000000 6.111000 26.341999 20.299980 # Cd LIG
241 28 5 0.000000 19.268999 10.953000 18.396980 # Cd LIG
242 28 5 0.000000 6.260000 33.485001 18.396980 # Cd LIG
243 28 5 0.000000 19.906000 3.700000 22.948978 # Cd LIG
244 28 5 0.000000 6.897000 26.232000 22.948978 # Cd LIG
245 28 2 0.000000 2.272000 7.833000 21.110979 # Ca LIG
246 28 2 0.000000 15.281000 30.364000 21.110979 # Ca LIG
247 26 3 0.000000 19.962000 4.809000 20.804979 # Cb LIG
248 27 3 0.000000 6.954000 27.341000 20.804979 # Cb LIG
249 28 4 0.000000 19.961000 10.013000 17.624979 # Cc LIG
250 28 4 0.000000 6.953000 32.543999 17.624979 # Cc LIG
251 28 2 0.000000 20.370001 5.884000 19.861980 # Ca LIG
252 28 2 0.000000 7.361000 28.416000 19.861980 # Ca LIG
253 28 4 0.000000 20.374001 4.770000 22.176979 # Cc LIG
254 28 4 0.000000 7.366000 27.302000 22.176979 # Cc LIG
255 28 2 0.000000 5.089000 5.562000 23.386980 # Ca LIG
256 28 2 0.000000 18.098000 28.093000 23.386980 # Ca LIG
257 28 2 0.000000 5.089000 20.583000 21.110979 # Ca LIG
258 28 2 0.000000 18.098000 43.115002 21.110979 # Ca LIG
259 28 4 0.000000 5.643000 10.251000 23.347980 # Cc LIG
260 28 4 0.000000 18.652000 32.783001 23.347980 # Cc LIG
261 28 2 0.000000 5.647000 9.137000 18.834980 # Ca LIG
262 28 2 0.000000 18.656000 31.667999 18.834980 # Ca LIG
263 28 3 0.000000 5.816000 4.671000 22.443979 # Cb LIG
264 28 3 0.000000 18.825001 27.202999 22.443979 # Cb LIG
265 28 3 0.000000 5.817000 19.693001 20.167980 # Cb LIG
266 28 3 0.000000 18.825001 42.223999 20.167980 # Cb LIG
267 28 4 0.000000 6.056000 5.008000 21.071980 # Cc LIG
268 28 4 0.000000 19.065001 27.540001 21.071980 # Cc LIG
269 28 4 0.000000 6.056000 20.028999 18.795979 # Cc LIG
270 28 4 0.000000 19.063999 42.561001 18.795979 # Cc LIG
271 28 3 0.000000 6.055000 10.212000 17.891979 # Cb LIG
272 28 3 0.000000 19.063000 32.743000 17.891979 # Cb LIG
273 28 5 0.000000 6.111000 11.321000 22.575979 # Cd LIG
274 28 5 0.000000 19.120001 33.852001 22.575979 # Cd LIG
275 28 5 0.000000 6.260000 3.443000 22.948978 # Cd LIG
276 28 5 0.000000 19.268999 25.974001 22.948978 # Cd LIG
277 28 5 0.000000 6.261000 18.464001 20.672979 # Cd LIG
278 28 5 0.000000 19.268999 40.994999 20.672979 # Cd LIG
279 28 5 0.000000 6.748000 4.068000 20.299980 # Cd LIG
280 28 5 0.000000 19.757000 26.599001 20.299980 # Cd LIG
281 28 5 0.000000 6.748000 19.089001 18.022980 # Cd LIG
282 28 5 0.000000 19.757000 41.619999 18.022980 # Cd LIG
283 28 5 0.000000 6.897000 11.211000 18.396980 # Cd LIG
284 28 5 0.000000 19.906000 33.742001 18.396980 # Cd LIG
285 28 3 0.000000 6.954000 12.320000 23.080978 # Cb LIG
286 28 3 0.000000 19.962000 34.851002 23.080978 # Cb LIG
287 28 4 0.000000 6.953000 2.502000 22.176979 # Cc LIG
288 28 4 0.000000 19.961000 25.034000 22.176979 # Cc LIG
289 28 4 0.000000 6.953000 17.523001 19.900980 # Cc LIG
290 28 4 0.000000 19.961000 40.055000 19.900980 # Cc LIG
291 28 3 0.000000 7.192000 2.839000 20.804979 # Cb LIG
292 28 3 0.000000 20.201000 25.371000 20.804979 # Cb LIG
293 28 3 0.000000 7.192000 17.860001 18.527981 # Cb LIG
294 28 3 0.000000 20.201000 40.390999 18.527981 # Cb LIG
295 28 2 0.000000 7.361000 13.395000 22.137980 # Ca LIG
296 28 2 0.000000 20.370001 35.925999 22.137980 # Ca LIG
297 28 4 0.000000 7.366000 12.281000 17.624979 # Cc LIG
298 28 4 0.000000 20.374001 34.812000 17.624979 # Cc LIG
299 28 2 0.000000 7.919000 1.949000 19.861980 # Ca LIG
300 28 2 0.000000 20.927999 24.480000 19.861980 # Ca LIG
301 28 2 0.000000 7.919000 16.969999 17.585979 # Ca LIG
302 28 2 0.000000 20.927999 39.500999 17.585979 # Ca LIG
303 5 6 0.000000 25.764999 8.173000 21.715981 # H LIG
304 6 6 0.000000 12.756000 30.704000 21.715981 # H LIG
305 7 6 0.000000 20.212999 18.664000 21.715981 # H LIG
306 8 6 0.000000 7.204000 41.195999 21.715981 # H LIG
307 11 6 0.000000 19.961000 11.816000 21.532980 # H LIG
308 12 6 0.000000 6.952000 34.347000 21.532980 # H LIG
309 29 6 0.000000 18.813000 18.889000 23.808979 # H LIG
310 30 6 0.000000 5.805000 41.419998 23.808979 # H LIG
311 31 6 0.000000 0.252000 6.849000 23.808979 # H LIG
312 32 6 0.000000 13.261000 29.379999 23.808979 # H LIG
313 28 6 0.000000 0.252000 21.870001 21.532980 # H LIG
314 28 6 0.000000 13.261000 44.401001 21.532980 # H LIG
315 15 6 0.000000 12.756000 0.662000 19.439980 # H LIG
316 4 6 0.000000 25.764999 23.194000 19.439980 # H LIG
317 33 6 0.000000 12.756000 15.683000 17.163979 # H LIG
318 34 6 0.000000 25.764999 38.215000 17.163979 # H LIG
319 24 6 0.000000 13.261000 14.359000 19.255980 # H LIG
320 25 6 0.000000 0.252000 36.890999 19.255980 # H LIG
321 26 6 0.000000 18.813000 3.868000 19.256979 # H LIG
322 27 6 0.000000 5.804000 26.399000 19.256979 # H LIG
323 28 6 0.000000 19.065001 10.716000 19.439980 # H LIG
324 28 6 0.000000 6.057000 33.248001 19.439980 # H LIG
325 35 6 0.000000 20.212999 3.643000 17.163979 # H LIG
326 36 6 0.000000 7.204000 26.174000 17.163979 # H LIG
327 28 6 0.000000 5.804000 11.378000 21.532980 # H LIG
328 28 6 0.000000 18.813000 33.910000 21.532980 # H LIG
329 37 6 0.000000 6.057000 3.205000 17.163979 # H LIG
330 38 6 0.000000 19.065001 25.737000 17.163979 # H LIG
331 28 6 0.000000 6.057000 18.226999 21.715981 # H LIG
332 28 6 0.000000 19.066000 40.757999 21.715981 # H LIG
333 28 6 0.000000 6.952000 4.305000 19.256979 # H LIG
334 28 6 0.000000 19.959999 26.837000 19.256979 # H LIG
335 39 6 0.000000 6.951000 19.326000 23.808979 # H LIG
336 40 6 0.000000 19.959999 41.856998 23.808979 # H LIG
337 28 6 0.000000 7.204000 11.153000 19.439980 # H LIG
338 28 6 0.000000 20.212999 33.685001 19.439980 # H LIG
339 28 7 0.000000 22.488001 21.886000 19.548981 # Ni LIG
340 2 7 0.000000 9.479000 44.417999 19.548981 # Ni LIG
341 1 7 0.000000 20.719000 22.156000 21.825979 # Ni LIG
342 2 7 0.000000 7.710000 44.687000 21.825979 # Ni LIG
343 41 7 0.000000 8.828000 1.021000 17.272980 # Ni LIG
344 3 7 0.000000 21.837000 23.552999 17.272980 # Ni LIG
345 20 7 0.000000 16.538000 0.645000 21.423981 # Ni LIG
346 28 7 0.000000 3.529000 23.177000 21.423981 # Ni LIG
347 20 7 0.000000 18.306999 0.376000 19.147980 # Ni LIG
348 21 7 0.000000 5.299000 22.908001 19.147980 # Ni LIG
349 28 7 0.000000 4.181000 21.510000 23.699980 # Ni LIG
350 42 7 0.000000 17.188999 44.042000 23.699980 # Ni LIG
351 3 7 0.000000 22.488001 6.865000 21.824980 # Ni LIG
352 4 7 0.000000 9.479000 29.396999 21.824980 # Ni LIG
353 28 7 0.000000 21.837000 8.532000 19.548981 # Ni LIG
354 28 7 0.000000 8.828000 31.063000 19.548981 # Ni LIG
355 1 7 0.000000 20.718000 7.135000 17.272980 # Ni LIG
356 2 7 0.000000 7.710000 29.666000 17.272980 # Ni LIG
357 28 7 0.000000 3.529000 8.156000 23.699980 # Ni LIG
358 28 7 0.000000 16.538000 30.688000 23.699980 # Ni LIG
359 28 7 0.000000 4.180000 6.489000 19.147980 # Ni LIG
360 28 7 0.000000 17.188999 29.021000 19.147980 # Ni LIG
361 28 7 0.000000 5.299000 7.886000 21.423981 # Ni LIG
362 28 7 0.000000 18.306999 30.417999 21.423981 # Ni LIG
363 18 7 0.000000 7.710000 14.645000 19.548981 # Ni LIG
364 19 7 0.000000 20.719000 37.176998 19.548981 # Ni LIG
365 28 7 0.000000 8.828000 16.042000 21.824980 # Ni LIG
366 28 7 0.000000 21.837000 38.574001 21.824980 # Ni LIG
367 28 7 0.000000 9.479000 14.375000 17.272980 # Ni LIG
368 28 7 0.000000 22.488001 36.907001 17.272980 # Ni LIG
369 5 7 0.000000 18.306999 15.397000 23.699980 # Ni LIG
370 6 7 0.000000 5.299000 37.929001 23.699980 # Ni LIG
371 22 7 0.000000 16.538000 15.666000 19.146980 # Ni LIG
372 23 7 0.000000 3.529000 38.198002 19.146980 # Ni LIG
373 9 7 0.000000 17.188999 14.000000 21.423981 # Ni LIG
374 10 7 0.000000 4.180000 36.530998 21.423981 # Ni LIG
375 1 9 0.000000 23.941000 21.823999 0.459500 # Ob LIG
376 2 9 0.000000 10.932000 44.355999 0.459500 # Ob LIG
377 3 9 0.000000 23.941000 6.803000 2.735500 # Ob LIG
378 4 9 0.000000 10.932000 29.334000 2.735500 # Ob LIG
379 5 10 0.000000 23.514999 7.995000 0.005500 # Oc LIG
380 6 10 0.000000 10.506000 30.527000 0.005500 # Oc LIG
381 1 8 0.000000 22.554001 7.442000 24.851978 # Oa LIG
382 2 8 0.000000 9.546000 29.973000 24.851978 # Oa LIG
383 1 8 0.000000 22.554001 22.462999 2.089500 # Oa LIG
384 2 8 0.000000 9.546000 44.993999 2.089500 # Oa LIG
385 3 8 0.000000 21.304001 8.301000 2.089500 # Oa LIG
386 4 8 0.000000 8.295000 30.833000 2.089500 # Oa LIG
387 3 9 0.000000 21.164000 9.821000 0.459500 # Ob LIG
388 4 9 0.000000 8.155000 32.353001 0.459500 # Ob LIG
389 7 10 0.000000 21.184000 20.701000 0.005500 # Oc LIG
390 8 10 0.000000 8.176000 43.233002 0.005500 # Oc LIG
391 3 8 0.000000 21.184999 21.809999 24.851978 # Oa LIG
392 2 8 0.000000 8.176000 44.341000 24.851978 # Oa LIG
393 1 9 0.000000 19.938000 20.927999 2.735500 # Ob LIG
394 2 9 0.000000 6.930000 43.459999 2.735500 # Ob LIG
395 9 9 0.000000 19.087999 16.624001 1.816500 # Ob LIG
396 10 9 0.000000 6.079000 39.155998 1.816500 # Ob LIG
397 11 10 0.000000 18.681999 13.676000 2.270500 # Oc LIG
398 12 10 0.000000 5.673000 36.207001 2.270500 # Oc LIG
399 9 8 0.000000 17.841000 15.743000 0.186500 # Oa LIG
400 10 8 0.000000 4.833000 38.275002 0.186500 # Oa LIG
401 13 10 0.000000 17.841999 16.851000 25.033979 # Oc LIG
402 14 10 0.000000 4.833000 39.382999 25.033979 # Oc LIG
403 15 10 0.000000 10.506000 0.485000 25.043980 # Oc LIG
404 4 10 0.000000 23.514999 23.017000 25.043980 # Oc LIG
405 16 10 0.000000 10.506000 15.506000 2.281500 # Oc LIG
406 17 10 0.000000 23.514999 38.036999 2.281500 # Oc LIG
407 18 9 0.000000 10.932000 14.313000 25.497980 # Ob LIG
408 19 9 0.000000 23.941000 36.845001 25.497980 # Ob LIG
409 20 9 0.000000 15.085000 0.708000 26.855980 # Ob LIG
410 21 9 0.000000 2.076000 23.239000 26.855980 # Ob LIG
411 22 9 0.000000 15.085000 15.729000 24.579979 # Ob LIG
412 23 9 0.000000 2.077000 38.259998 24.579979 # Ob LIG
413 24 10 0.000000 15.511000 14.536000 27.309978 # Oc LIG
414 25 10 0.000000 2.503000 37.068001 27.309978 # Oc LIG
415 5 8 0.000000 16.471001 15.090000 2.462500 # Oa LIG
416 6 8 0.000000 3.463000 37.620998 2.462500 # Oa LIG
417 20 8 0.000000 16.471001 0.069000 25.225979 # Oa LIG
418 21 8 0.000000 3.463000 22.601000 25.225979 # Oa LIG
419 22 8 0.000000 17.722000 14.230000 25.225979 # Oa LIG
420 23 8 0.000000 4.713000 36.762001 25.225979 # Oa LIG
421 22 9 0.000000 17.862000 12.710000 26.855980 # Ob LIG
422 23 9 0.000000 4.853000 35.242001 26.855980 # Ob LIG
423 26 10 0.000000 17.841000 1.831000 27.309978 # Oc LIG
424 27 10 0.000000 4.833000 24.362000 27.309978 # Oc LIG
425 20 8 0.000000 17.841000 0.722000 2.462500 # Oa LIG
426 28 8 0.000000 4.833000 23.254000 2.462500 # Oa LIG
427 20 9 0.000000 19.087000 1.603000 24.579979 # Ob LIG
428 21 9 0.000000 6.079000 24.135000 24.579979 # Ob LIG
429 28 9 0.000000 19.938000 5.907000 25.497980 # Ob LIG
430 28 9 0.000000 6.930000 28.438999 25.497980 # Ob LIG
431 28 9 0.000000 2.076000 8.218000 1.816500 # Ob LIG
432 28 9 0.000000 15.085000 30.750000 1.816500 # Ob LIG
433 28 10 0.000000 2.503000 7.026000 25.033979 # Oc LIG
434 28 10 0.000000 15.511000 29.556999 25.033979 # Oc LIG
435 28 10 0.000000 2.503000 22.047001 2.270500 # Oc LIG
436 28 10 0.000000 15.511000 44.577999 2.270500 # Oc LIG
437 28 10 0.000000 20.344000 8.856000 25.044979 # Oc LIG
438 28 10 0.000000 7.336000 31.388000 25.044979 # Oc LIG
439 28 8 0.000000 21.184999 6.789000 27.128979 # Oa LIG
440 28 8 0.000000 8.176000 29.320000 27.128979 # Oa LIG
441 28 10 0.000000 21.184000 5.680000 2.281500 # Oc LIG
442 28 10 0.000000 8.176000 28.212000 2.281500 # Oc LIG
443 28 8 0.000000 3.463000 7.579000 0.186500 # Oa LIG
444 28 8 0.000000 16.471001 30.111000 0.186500 # Oa LIG
445 28 8 0.000000 4.713000 6.720000 2.462500 # Oa LIG
446 28 8 0.000000 17.722000 29.250999 2.462500 # Oa LIG
447 28 8 0.000000 4.713000 21.740999 0.186500 # Oa LIG
448 28 8 0.000000 17.722000 44.271999 0.186500 # Oa LIG
449 28 9 0.000000 4.853000 5.200000 24.579979 # Ob LIG
450 28 9 0.000000 17.862000 27.731001 24.579979 # Ob LIG
451 28 9 0.000000 4.853000 20.221001 1.816500 # Ob LIG
452 28 9 0.000000 17.862000 42.751999 1.816500 # Ob LIG
453 28 10 0.000000 4.833000 9.341000 2.270500 # Oc LIG
454 28 10 0.000000 17.841000 31.872999 2.270500 # Oc LIG
455 28 8 0.000000 4.833000 8.232000 25.225979 # Oa LIG
456 28 8 0.000000 17.841000 30.764000 25.225979 # Oa LIG
457 28 10 0.000000 5.673000 6.165000 27.309978 # Oc LIG
458 28 10 0.000000 18.681999 28.697001 27.309978 # Oc LIG
459 28 10 0.000000 5.673000 21.186001 25.033979 # Oc LIG
460 28 10 0.000000 18.681000 43.717999 25.033979 # Oc LIG
461 28 9 0.000000 6.079000 9.114000 26.855980 # Ob LIG
462 28 9 0.000000 19.087000 31.645000 26.855980 # Ob LIG
463 28 9 0.000000 6.930000 13.418000 0.459500 # Ob LIG
464 28 9 0.000000 19.938000 35.949001 0.459500 # Ob LIG
465 28 10 0.000000 7.336000 1.345000 2.281500 # Oc LIG
466 28 10 0.000000 20.344000 23.877001 2.281500 # Oc LIG
467 28 10 0.000000 7.336000 16.365999 0.005500 # Oc LIG
468 28 10 0.000000 20.344000 38.897999 0.005500 # Oc LIG
469 28 8 0.000000 8.176000 14.299000 2.089500 # Oa LIG
470 28 8 0.000000 21.184999 36.831001 2.089500 # Oa LIG
471 28 10 0.000000 8.176000 13.190000 25.043980 # Oc LIG
472 28 10 0.000000 21.184000 35.722000 25.043980 # Oc LIG
473 28 9 0.000000 8.155000 2.311000 25.497980 # Ob LIG
474 28 9 0.000000 21.164000 24.841999 25.497980 # Ob LIG
475 28 9 0.000000 8.155000 17.332001 2.735500 # Ob LIG
476 28 9 0.000000 21.164000 39.862999 2.735500 # Ob LIG
477 28 8 0.000000 8.296000 0.791000 27.128979 # Oa LIG
478 28 8 0.000000 21.304001 23.322001 27.128979 # Oa LIG
479 28 8 0.000000 8.295000 15.812000 24.851978 # Oa LIG
480 28 8 0.000000 21.304001 38.342999 24.851978 # Oa LIG
481 18 8 0.000000 9.546000 14.952000 27.128979 # Oa LIG
482 19 8 0.000000 22.554001 37.484001 27.128979 # Oa LIG
483 5 5 0.000000 25.868000 7.878000 0.186500 # Cd LIG
484 6 5 0.000000 12.860000 30.409000 0.186500 # Cd LIG
485 5 3 0.000000 24.879999 7.373000 25.356979 # Cb LIG
486 28 3 0.000000 11.871000 29.905001 25.356979 # Cb LIG
487 1 3 0.000000 24.879999 22.393999 2.594500 # Cb LIG
488 28 3 0.000000 11.871000 44.925999 2.594500 # Cb LIG
489 5 4 0.000000 24.708000 7.749000 26.729979 # Cc LIG
490 6 4 0.000000 11.699000 30.280001 26.729979 # Cc LIG
491 1 2 0.000000 23.745001 22.209999 1.651500 # Ca LIG
492 2 2 0.000000 10.736000 44.741001 1.651500 # Ca LIG
493 1 2 0.000000 23.745001 7.188000 24.414980 # Ca LIG
494 2 2 0.000000 10.736000 29.719999 24.414980 # Ca LIG
495 3 2 0.000000 20.927999 9.459000 1.651500 # Ca LIG
496 4 2 0.000000 7.919000 31.990999 1.651500 # Ca LIG
497 7 4 0.000000 20.374001 19.791000 26.729979 # Cc LIG
498 8 4 0.000000 7.365000 42.323002 26.729979 # Cc LIG
499 3 2 0.000000 20.370001 20.905001 24.414980 # Ca LIG
500 2 2 0.000000 7.361000 43.437000 24.414980 # Ca LIG
501 11 3 0.000000 20.201000 10.350000 2.594500 # Cb LIG
502 12 3 0.000000 7.192000 32.881001 2.594500 # Cb LIG
503 13 3 0.000000 19.962999 19.830000 25.356979 # Cb LIG
504 14 3 0.000000 6.954000 42.362000 25.356979 # Cb LIG
505 7 5 0.000000 19.905001 18.722000 0.186500 # Cd LIG
506 8 5 0.000000 6.897000 41.252998 0.186500 # Cd LIG
507 11 5 0.000000 19.757000 11.578000 2.089500 # Cd LIG
508 12 5 0.000000 6.749000 34.110001 2.089500 # Cd LIG
509 13 5 0.000000 19.120001 18.830999 24.851978 # Cd LIG
510 14 5 0.000000 6.112000 41.362999 24.851978 # Cd LIG
511 7 3 0.000000 19.063000 17.723000 26.996979 # Cb LIG
512 8 3 0.000000 6.055000 40.254002 26.996979 # Cb LIG
513 11 4 0.000000 19.065001 12.519000 2.861500 # Cc LIG
514 12 4 0.000000 6.056000 35.050999 2.861500 # Cc LIG
515 9 2 0.000000 18.656000 16.646999 0.624500 # Ca LIG
516 10 2 0.000000 5.647000 39.179001 0.624500 # Ca LIG
517 13 4 0.000000 18.652000 17.761000 25.624979 # Cc LIG
518 14 4 0.000000 5.643000 40.292999 25.624979 # Cc LIG
519 28 5 0.000000 0.149000 7.143000 24.851978 # Cd LIG
520 28 5 0.000000 13.157000 29.674999 24.851978 # Cd LIG
521 28 5 0.000000 0.149000 22.164000 2.089500 # Cd LIG
522 28 5 0.000000 13.157000 44.695999 2.089500 # Cd LIG
523 28 3 0.000000 1.137000 7.648000 26.996979 # Cb LIG
524 6 3 0.000000 14.146000 30.179001 26.996979 # Cb LIG
525 28 4 0.000000 1.309000 22.292999 2.861500 # Cc LIG
526 28 4 0.000000 14.318000 44.825001 2.861500 # Cc LIG
527 28 4 0.000000 1.309000 7.272000 25.624979 # Cc LIG
528 28 4 0.000000 14.318000 29.804001 25.624979 # Cc LIG