LAMMPS data file. CGCMM style. atom_style full generated by VMD/TopoTools v1.5 on Mon Mar 06 09:08:30 PST 2017
 2852 atoms
 0 bonds
 0 angles
 0 dihedrals
 0 impropers
 10 atom types
 0 bond types
 0 angle types
 0 dihedral types
 0 improper types
 0.451838 52.642840  xlo xhi
 0.325101 45.523500  ylo yhi
 -0.211620 27.315621  zlo zhi

# Pair Coeffs
#
# 1  CH4
# 2  Ca
# 3  Cb
# 4  Cc
# 5  Cd
# 6  H
# 7  Oa
# 8  Ob
# 9  Oc
# 10  Zn

 Masses

 1 16.040001 # CH4
 2 12.011000 # Ca
 3 12.011000 # Cb
 4 12.011000 # Cc
 5 12.011000 # Cd
 6 1.008000 # H
 7 15.999000 # Oa
 8 15.999000 # Ob
 9 15.999000 # Oc
 10 65.379997 # Zn

 Atoms

1 1 1 0.000000 52.190678 45.197601 13.975000 # CH4 
2 1 1 0.000000 52.190678 45.197601 14.399000 # CH4 
3 1 1 0.000000 52.190678 45.197601 14.822001 # CH4 
4 1 1 0.000000 52.190678 45.197601 15.246000 # CH4 
5 1 1 0.000000 52.190678 45.197601 15.669001 # CH4 
6 1 1 0.000000 52.190678 45.197601 16.093000 # CH4 
7 1 1 0.000000 52.190678 45.197601 16.516001 # CH4 
8 1 1 0.000000 52.190678 45.197601 16.940001 # CH4 
9 1 1 0.000000 52.190678 45.197601 17.363001 # CH4 
10 1 1 0.000000 52.190678 45.197601 17.787001 # CH4 
11 1 1 0.000000 52.190678 45.197601 18.209999 # CH4 
12 1 1 0.000000 52.190678 45.197601 18.634001 # CH4 
13 1 1 0.000000 52.190678 45.197601 19.056999 # CH4 
14 1 1 0.000000 52.190678 45.197601 19.481001 # CH4 
15 1 1 0.000000 52.190678 45.197601 19.903999 # CH4 
16 1 1 0.000000 52.190678 45.197601 20.328001 # CH4 
17 1 1 0.000000 52.190678 45.197601 20.750999 # CH4 
18 1 1 0.000000 52.190678 45.197601 21.174999 # CH4 
19 1 1 0.000000 52.190678 45.197601 21.598000 # CH4 
20 1 1 0.000000 52.190678 45.197601 22.021999 # CH4 
21 1 1 0.000000 52.190678 45.197601 22.445000 # CH4 
22 1 1 0.000000 52.190678 45.197601 22.868999 # CH4 
23 1 1 0.000000 52.190678 45.197601 23.292000 # CH4 
24 1 1 0.000000 52.190678 45.197601 23.716000 # CH4 
25 1 1 0.000000 52.190678 45.197601 24.139000 # CH4 
26 1 1 0.000000 52.190678 45.197601 24.563000 # CH4 
27 1 1 0.000000 52.190678 45.197601 24.986000 # CH4 
28 1 1 0.000000 52.190678 45.197601 25.410000 # CH4 
29 1 1 0.000000 52.190678 45.197601 25.833000 # CH4 
30 1 1 0.000000 52.190678 45.197601 26.257000 # CH4 
31 1 1 0.000000 52.190678 45.197601 26.680000 # CH4 
32 1 1 0.000000 52.190678 45.197601 27.104000 # CH4 
33 1 1 0.000000 52.190678 45.197601 0.000000 # CH4 
34 1 1 0.000000 52.190678 45.197601 0.423000 # CH4 
35 1 1 0.000000 52.190678 45.197601 0.847000 # CH4 
36 1 1 0.000000 52.190678 45.197601 1.270000 # CH4 
37 1 1 0.000000 52.190678 45.197601 1.694000 # CH4 
38 1 1 0.000000 52.190678 45.197601 2.117000 # CH4 
39 1 1 0.000000 52.190678 45.197601 2.541000 # CH4 
40 1 1 0.000000 52.190678 45.197601 2.964000 # CH4 
41 1 1 0.000000 52.190678 45.197601 3.388000 # CH4 
42 1 1 0.000000 52.190678 45.197601 3.811000 # CH4 
43 1 1 0.000000 52.190678 45.197601 4.235000 # CH4 
44 1 1 0.000000 52.190678 45.197601 4.658000 # CH4 
45 1 1 0.000000 52.190678 45.197601 5.082000 # CH4 
46 1 1 0.000000 52.190678 45.197601 5.505000 # CH4 
47 1 1 0.000000 52.190678 45.197601 5.929000 # CH4 
48 1 1 0.000000 52.190678 45.197601 6.352000 # CH4 
49 1 1 0.000000 52.190678 45.197601 6.776000 # CH4 
50 1 1 0.000000 52.190678 45.197601 7.199000 # CH4 
51 1 1 0.000000 52.190678 45.197601 7.623000 # CH4 
52 1 1 0.000000 52.190678 45.197601 8.046000 # CH4 
53 1 1 0.000000 52.190678 45.197601 8.470000 # CH4 
54 1 1 0.000000 52.190678 45.197601 8.893000 # CH4 
55 1 1 0.000000 52.190678 45.197601 9.317000 # CH4 
56 1 1 0.000000 52.190678 45.197601 9.740000 # CH4 
57 1 1 0.000000 52.190678 45.197601 10.164000 # CH4 
58 1 1 0.000000 52.190678 45.197601 10.587000 # CH4 
59 1 1 0.000000 52.190678 45.197601 11.011000 # CH4 
60 1 1 0.000000 52.190678 45.197601 11.434000 # CH4 
61 1 1 0.000000 52.190678 45.197601 11.858000 # CH4 
62 1 1 0.000000 52.190678 45.197601 12.281000 # CH4 
63 1 1 0.000000 52.190678 45.197601 12.705000 # CH4 
64 1 1 0.000000 52.190678 45.197601 13.128000 # CH4 
65 1 1 0.000000 52.190678 45.197601 13.552000 # CH4 
66 1 1 0.000000 52.190678 22.599600 13.975000 # CH4 
67 1 1 0.000000 52.190678 22.599600 14.399000 # CH4 
68 1 1 0.000000 52.190678 22.599600 14.822001 # CH4 
69 1 1 0.000000 52.190678 22.599600 15.246000 # CH4 
70 1 1 0.000000 52.190678 22.599600 15.669001 # CH4 
71 1 1 0.000000 52.190678 22.599600 16.093000 # CH4 
72 1 1 0.000000 52.190678 22.599600 16.516001 # CH4 
73 1 1 0.000000 52.190678 22.599600 16.940001 # CH4 
74 1 1 0.000000 52.190678 22.599600 17.363001 # CH4 
75 1 1 0.000000 52.190678 22.599600 17.787001 # CH4 
76 1 1 0.000000 52.190678 22.599600 18.209999 # CH4 
77 1 1 0.000000 52.190678 22.599600 18.634001 # CH4 
78 1 1 0.000000 52.190678 22.599600 19.056999 # CH4 
79 1 1 0.000000 52.190678 22.599600 19.481001 # CH4 
80 1 1 0.000000 52.190678 22.599600 19.903999 # CH4 
81 1 1 0.000000 52.190678 22.599600 20.328001 # CH4 
82 1 1 0.000000 52.190678 22.599600 20.750999 # CH4 
83 1 1 0.000000 52.190678 22.599600 21.174999 # CH4 
84 1 1 0.000000 52.190678 22.599600 21.598000 # CH4 
85 1 1 0.000000 52.190678 22.599600 22.021999 # CH4 
86 1 1 0.000000 52.190678 22.599600 22.445000 # CH4 
87 1 1 0.000000 52.190678 22.599600 22.868999 # CH4 
88 1 1 0.000000 52.190678 22.599600 23.292000 # CH4 
89 1 1 0.000000 52.190678 22.599600 23.716000 # CH4 
90 1 1 0.000000 52.190678 22.599600 24.139000 # CH4 
91 1 1 0.000000 52.190678 22.599600 24.563000 # CH4 
92 1 1 0.000000 52.190678 22.599600 24.986000 # CH4 
93 1 1 0.000000 52.190678 22.599600 25.410000 # CH4 
94 1 1 0.000000 52.190678 22.599600 25.833000 # CH4 
95 1 1 0.000000 52.190678 22.599600 26.257000 # CH4 
96 1 1 0.000000 52.190678 22.599600 26.680000 # CH4 
97 1 1 0.000000 52.190678 22.599600 27.104000 # CH4 
98 1 1 0.000000 52.190678 22.599600 0.000000 # CH4 
99 1 1 0.000000 52.190678 22.599600 0.423000 # CH4 
100 1 1 0.000000 52.190678 22.599600 0.847000 # CH4 
101 1 1 0.000000 52.190678 22.599600 1.270000 # CH4 
102 1 1 0.000000 52.190678 22.599600 1.694000 # CH4 
103 1 1 0.000000 52.190678 22.599600 2.117000 # CH4 
104 1 1 0.000000 52.190678 22.599600 2.541000 # CH4 
105 1 1 0.000000 52.190678 22.599600 2.964000 # CH4 
106 1 1 0.000000 52.190678 22.599600 3.388000 # CH4 
107 1 1 0.000000 52.190678 22.599600 3.811000 # CH4 
108 1 1 0.000000 52.190678 22.599600 4.235000 # CH4 
109 1 1 0.000000 52.190678 22.599600 4.658000 # CH4 
110 1 1 0.000000 52.190678 22.599600 5.082000 # CH4 
111 1 1 0.000000 52.190678 22.599600 5.505000 # CH4 
112 1 1 0.000000 52.190678 22.599600 5.929000 # CH4 
113 1 1 0.000000 52.190678 22.599600 6.352000 # CH4 
114 1 1 0.000000 52.190678 22.599600 6.776000 # CH4 
115 1 1 0.000000 52.190678 22.599600 7.199000 # CH4 
116 1 1 0.000000 52.190678 22.599600 7.623000 # CH4 
117 1 1 0.000000 52.190678 22.599600 8.046000 # CH4 
118 1 1 0.000000 52.190678 22.599600 8.470000 # CH4 
119 1 1 0.000000 52.190678 22.599600 8.893000 # CH4 
120 1 1 0.000000 52.190678 22.599600 9.317000 # CH4 
121 1 1 0.000000 52.190678 22.599600 9.740000 # CH4 
122 1 1 0.000000 52.190678 22.599600 10.164000 # CH4 
123 1 1 0.000000 52.190678 22.599600 10.587000 # CH4 
124 1 1 0.000000 52.190678 22.599600 11.011000 # CH4 
125 1 1 0.000000 52.190678 22.599600 11.434000 # CH4 
126 1 1 0.000000 52.190678 22.599600 11.858000 # CH4 
127 1 1 0.000000 52.190678 22.599600 12.281000 # CH4 
128 1 1 0.000000 52.190678 22.599600 12.705000 # CH4 
129 1 1 0.000000 52.190678 22.599600 13.128000 # CH4 
130 1 1 0.000000 52.190678 22.599600 13.552000 # CH4 
131 1 1 0.000000 26.095676 45.197601 13.975000 # CH4 
132 1 1 0.000000 26.095676 45.197601 14.399000 # CH4 
133 1 1 0.000000 26.095676 45.197601 14.822001 # CH4 
134 1 1 0.000000 26.095676 45.197601 15.246000 # CH4 
135 1 1 0.000000 26.095676 45.197601 15.669001 # CH4 
136 1 1 0.000000 26.095676 45.197601 16.093000 # CH4 
137 1 1 0.000000 26.095676 45.197601 16.516001 # CH4 
138 1 1 0.000000 26.095676 45.197601 16.940001 # CH4 
139 1 1 0.000000 26.095676 45.197601 17.363001 # CH4 
140 1 1 0.000000 26.095676 45.197601 17.787001 # CH4 
141 1 1 0.000000 26.095676 45.197601 18.209999 # CH4 
142 1 1 0.000000 26.095676 45.197601 18.634001 # CH4 
143 1 1 0.000000 26.095676 45.197601 19.056999 # CH4 
144 1 1 0.000000 26.095676 45.197601 19.481001 # CH4 
145 1 1 0.000000 26.095676 45.197601 19.903999 # CH4 
146 1 1 0.000000 26.095676 45.197601 20.328001 # CH4 
147 1 1 0.000000 26.095676 45.197601 20.750999 # CH4 
148 1 1 0.000000 26.095676 45.197601 21.174999 # CH4 
149 1 1 0.000000 26.095676 45.197601 21.598000 # CH4 
150 1 1 0.000000 26.095676 45.197601 22.021999 # CH4 
151 1 1 0.000000 26.095676 45.197601 22.445000 # CH4 
152 1 1 0.000000 26.095676 45.197601 22.868999 # CH4 
153 1 1 0.000000 26.095676 45.197601 23.292000 # CH4 
154 1 1 0.000000 26.095676 45.197601 23.716000 # CH4 
155 1 1 0.000000 26.095676 45.197601 24.139000 # CH4 
156 1 1 0.000000 26.095676 45.197601 24.563000 # CH4 
157 1 1 0.000000 26.095676 45.197601 24.986000 # CH4 
158 1 1 0.000000 26.095676 45.197601 25.410000 # CH4 
159 1 1 0.000000 26.095676 45.197601 25.833000 # CH4 
160 1 1 0.000000 26.095676 45.197601 26.257000 # CH4 
161 1 1 0.000000 26.095676 45.197601 26.680000 # CH4 
162 1 1 0.000000 26.095676 45.197601 27.104000 # CH4 
163 1 1 0.000000 26.095676 45.197601 0.000000 # CH4 
164 1 1 0.000000 26.095676 45.197601 0.423000 # CH4 
165 1 1 0.000000 26.095676 45.197601 0.847000 # CH4 
166 1 1 0.000000 26.095676 45.197601 1.270000 # CH4 
167 1 1 0.000000 26.095676 45.197601 1.694000 # CH4 
168 1 1 0.000000 26.095676 45.197601 2.117000 # CH4 
169 1 1 0.000000 26.095676 45.197601 2.541000 # CH4 
170 1 1 0.000000 26.095676 45.197601 2.964000 # CH4 
171 1 1 0.000000 26.095676 45.197601 3.388000 # CH4 
172 1 1 0.000000 26.095676 45.197601 3.811000 # CH4 
173 1 1 0.000000 26.095676 45.197601 4.235000 # CH4 
174 1 1 0.000000 26.095676 45.197601 4.658000 # CH4 
175 1 1 0.000000 26.095676 45.197601 5.082000 # CH4 
176 1 1 0.000000 26.095676 45.197601 5.505000 # CH4 
177 1 1 0.000000 26.095676 45.197601 5.929000 # CH4 
178 1 1 0.000000 26.095676 45.197601 6.352000 # CH4 
179 1 1 0.000000 26.095676 45.197601 6.776000 # CH4 
180 1 1 0.000000 26.095676 45.197601 7.199000 # CH4 
181 1 1 0.000000 26.095676 45.197601 7.623000 # CH4 
182 1 1 0.000000 26.095676 45.197601 8.046000 # CH4 
183 1 1 0.000000 26.095676 45.197601 8.470000 # CH4 
184 1 1 0.000000 26.095676 45.197601 8.893000 # CH4 
185 1 1 0.000000 26.095676 45.197601 9.317000 # CH4 
186 1 1 0.000000 26.095676 45.197601 9.740000 # CH4 
187 1 1 0.000000 26.095676 45.197601 10.164000 # CH4 
188 1 1 0.000000 26.095676 45.197601 10.587000 # CH4 
189 1 1 0.000000 26.095676 45.197601 11.011000 # CH4 
190 1 1 0.000000 26.095676 45.197601 11.434000 # CH4 
191 1 1 0.000000 26.095676 45.197601 11.858000 # CH4 
192 1 1 0.000000 26.095676 45.197601 12.281000 # CH4 
193 1 1 0.000000 26.095676 45.197601 12.705000 # CH4 
194 1 1 0.000000 26.095676 45.197601 13.128000 # CH4 
195 1 1 0.000000 26.095676 45.197601 13.552000 # CH4 
196 1 1 0.000000 26.095676 22.599600 13.975000 # CH4 
197 1 1 0.000000 26.095676 22.599600 14.399000 # CH4 
198 1 1 0.000000 26.095676 22.599600 14.822001 # CH4 
199 1 1 0.000000 26.095676 22.599600 15.246000 # CH4 
200 1 1 0.000000 26.095676 22.599600 15.669001 # CH4 
201 1 1 0.000000 26.095676 22.599600 16.093000 # CH4 
202 1 1 0.000000 26.095676 22.599600 16.516001 # CH4 
203 1 1 0.000000 26.095676 22.599600 16.940001 # CH4 
204 1 1 0.000000 26.095676 22.599600 17.363001 # CH4 
205 1 1 0.000000 26.095676 22.599600 17.787001 # CH4 
206 1 1 0.000000 26.095676 22.599600 18.209999 # CH4 
207 1 1 0.000000 26.095676 22.599600 18.634001 # CH4 
208 1 1 0.000000 26.095676 22.599600 19.056999 # CH4 
209 1 1 0.000000 26.095676 22.599600 19.481001 # CH4 
210 1 1 0.000000 26.095676 22.599600 19.903999 # CH4 
211 1 1 0.000000 26.095676 22.599600 20.328001 # CH4 
212 1 1 0.000000 26.095676 22.599600 20.750999 # CH4 
213 1 1 0.000000 26.095676 22.599600 21.174999 # CH4 
214 1 1 0.000000 26.095676 22.599600 21.598000 # CH4 
215 1 1 0.000000 26.095676 22.599600 22.021999 # CH4 
216 1 1 0.000000 26.095676 22.599600 22.445000 # CH4 
217 1 1 0.000000 26.095676 22.599600 22.868999 # CH4 
218 1 1 0.000000 26.095676 22.599600 23.292000 # CH4 
219 1 1 0.000000 26.095676 22.599600 23.716000 # CH4 
220 1 1 0.000000 26.095676 22.599600 24.139000 # CH4 
221 1 1 0.000000 26.095676 22.599600 24.563000 # CH4 
222 1 1 0.000000 26.095676 22.599600 24.986000 # CH4 
223 1 1 0.000000 26.095676 22.599600 25.410000 # CH4 
224 1 1 0.000000 26.095676 22.599600 25.833000 # CH4 
225 1 1 0.000000 26.095676 22.599600 26.257000 # CH4 
226 1 1 0.000000 26.095676 22.599600 26.680000 # CH4 
227 1 1 0.000000 26.095676 22.599600 27.104000 # CH4 
228 1 1 0.000000 26.095676 22.599600 0.000000 # CH4 
229 1 1 0.000000 26.095676 22.599600 0.423000 # CH4 
230 1 1 0.000000 26.095676 22.599600 0.847000 # CH4 
231 1 1 0.000000 26.095676 22.599600 1.270000 # CH4 
232 1 1 0.000000 26.095676 22.599600 1.694000 # CH4 
233 1 1 0.000000 26.095676 22.599600 2.117000 # CH4 
234 1 1 0.000000 26.095676 22.599600 2.541000 # CH4 
235 1 1 0.000000 26.095676 22.599600 2.964000 # CH4 
236 1 1 0.000000 26.095676 22.599600 3.388000 # CH4 
237 1 1 0.000000 26.095676 22.599600 3.811000 # CH4 
238 1 1 0.000000 26.095676 22.599600 4.235000 # CH4 
239 1 1 0.000000 26.095676 22.599600 4.658000 # CH4 
240 1 1 0.000000 26.095676 22.599600 5.082000 # CH4 
241 1 1 0.000000 26.095676 22.599600 5.505000 # CH4 
242 1 1 0.000000 26.095676 22.599600 5.929000 # CH4 
243 1 1 0.000000 26.095676 22.599600 6.352000 # CH4 
244 1 1 0.000000 26.095676 22.599600 6.776000 # CH4 
245 1 1 0.000000 26.095676 22.599600 7.199000 # CH4 
246 1 1 0.000000 26.095676 22.599600 7.623000 # CH4 
247 1 1 0.000000 26.095676 22.599600 8.046000 # CH4 
248 1 1 0.000000 26.095676 22.599600 8.470000 # CH4 
249 1 1 0.000000 26.095676 22.599600 8.893000 # CH4 
250 1 1 0.000000 26.095676 22.599600 9.317000 # CH4 
251 1 1 0.000000 26.095676 22.599600 9.740000 # CH4 
252 1 1 0.000000 26.095676 22.599600 10.164000 # CH4 
253 1 1 0.000000 26.095676 22.599600 10.587000 # CH4 
254 1 1 0.000000 26.095676 22.599600 11.011000 # CH4 
255 1 1 0.000000 26.095676 22.599600 11.434000 # CH4 
256 1 1 0.000000 26.095676 22.599600 11.858000 # CH4 
257 1 1 0.000000 26.095676 22.599600 12.281000 # CH4 
258 1 1 0.000000 26.095676 22.599600 12.705000 # CH4 
259 1 1 0.000000 26.095676 22.599600 13.128000 # CH4 
260 1 1 0.000000 26.095676 22.599600 13.552000 # CH4 
261 1 10 0.000000 5.331000 7.994000 21.569241 # Zn LIG
262 2 10 0.000000 18.378000 30.594000 21.569241 # Zn LIG
263 3 10 0.000000 31.426001 7.994000 21.569241 # Zn LIG
264 4 10 0.000000 44.473999 30.594000 21.569241 # Zn LIG
265 5 2 0.000000 5.724000 9.170000 18.988241 # Ca LIG
266 6 2 0.000000 18.771999 31.768999 18.988241 # Ca LIG
267 7 2 0.000000 31.819000 9.170000 18.988241 # Ca LIG
268 8 2 0.000000 44.867001 31.768999 18.988241 # Ca LIG
269 9 3 0.000000 6.104000 10.244000 18.040241 # Cb LIG
270 10 3 0.000000 19.150999 32.842999 18.040241 # Cb LIG
271 11 3 0.000000 32.199001 10.244000 18.040241 # Cb LIG
272 12 3 0.000000 45.247002 32.842999 18.040241 # Cb LIG
273 9 5 0.000000 6.937000 11.262000 18.520241 # Cd LIG
274 10 5 0.000000 19.983999 33.861000 18.520241 # Cd LIG
275 11 5 0.000000 33.032001 11.262000 18.520241 # Cd LIG
276 12 5 0.000000 46.080002 33.861000 18.520241 # Cd LIG
277 9 6 0.000000 7.258000 11.221000 19.558241 # H LIG
278 10 6 0.000000 20.306000 33.820000 19.558241 # H LIG
279 11 6 0.000000 33.353001 11.221000 19.558241 # H LIG
280 12 6 0.000000 46.401001 33.820000 19.558241 # H LIG
281 5 8 0.000000 6.191000 9.168000 20.176241 # Ob LIG
282 6 8 0.000000 19.238001 31.767000 20.176241 # Ob LIG
283 7 8 0.000000 32.285999 9.168000 20.176241 # Ob LIG
284 8 8 0.000000 45.334000 31.767000 20.176241 # Ob LIG
285 5 7 0.000000 4.915000 8.263000 18.567242 # Oa LIG
286 6 7 0.000000 17.962999 30.862000 18.567242 # Oa LIG
287 7 7 0.000000 31.010000 8.263000 18.567242 # Oa LIG
288 8 7 0.000000 44.057999 30.862000 18.567242 # Oa LIG
289 9 9 0.000000 8.191000 13.251000 18.306240 # Oc LIG
290 10 9 0.000000 21.238001 35.849998 18.306240 # Oc LIG
291 11 9 0.000000 34.285999 13.251000 18.306240 # Oc LIG
292 12 9 0.000000 47.334000 35.849998 18.306240 # Oc LIG
293 5 10 0.000000 4.258000 6.452000 19.275242 # Zn LIG
294 6 10 0.000000 17.306000 29.052000 19.275242 # Zn LIG
295 7 10 0.000000 30.353001 6.452000 19.275242 # Zn LIG
296 8 10 0.000000 43.401001 29.052000 19.275242 # Zn LIG
297 1 10 0.000000 3.459000 8.152000 23.863241 # Zn LIG
298 2 10 0.000000 16.507000 30.750999 23.863241 # Zn LIG
299 3 10 0.000000 29.554001 8.152000 23.863241 # Zn LIG
300 4 10 0.000000 42.602001 30.750999 23.863241 # Zn LIG
301 13 10 0.000000 7.717000 14.605000 19.721241 # Zn LIG
302 14 10 0.000000 20.764999 37.203999 19.721241 # Zn LIG
303 15 10 0.000000 33.812000 14.605000 19.721241 # Zn LIG
304 16 10 0.000000 46.860001 37.203999 19.721241 # Zn LIG
305 1 7 0.000000 4.698000 6.678000 23.155241 # Oa LIG
306 2 7 0.000000 17.746000 29.277000 23.155241 # Oa LIG
307 3 7 0.000000 30.794001 6.678000 23.155241 # Oa LIG
308 4 7 0.000000 43.841000 29.277000 23.155241 # Oa LIG
309 1 7 0.000000 3.434000 7.658000 20.861240 # Oa LIG
310 2 7 0.000000 16.482000 30.257000 20.861240 # Oa LIG
311 3 7 0.000000 29.530001 7.658000 20.861240 # Oa LIG
312 4 7 0.000000 42.577000 30.257000 20.861240 # Oa LIG
313 17 9 0.000000 4.857000 9.348000 22.984241 # Oc LIG
314 18 9 0.000000 17.905001 31.947001 22.984241 # Oc LIG
315 19 9 0.000000 30.952000 9.348000 22.984241 # Oc LIG
316 20 9 0.000000 44.000000 31.947001 22.984241 # Oc LIG
317 21 9 0.000000 5.667000 6.186000 20.690241 # Oc LIG
318 22 9 0.000000 18.715000 28.785000 20.690241 # Oc LIG
319 23 9 0.000000 31.763000 6.186000 20.690241 # Oc LIG
320 24 9 0.000000 44.810001 28.785000 20.690241 # Oc LIG
321 17 4 0.000000 5.670000 10.272000 23.559240 # Cc LIG
322 18 4 0.000000 18.718000 32.870998 23.559240 # Cc LIG
323 19 4 0.000000 31.764999 10.272000 23.559240 # Cc LIG
324 20 4 0.000000 44.813000 32.870998 23.559240 # Cc LIG
325 25 2 0.000000 7.324000 13.429000 22.302240 # Ca LIG
326 26 2 0.000000 20.371000 36.028000 22.302240 # Ca LIG
327 27 2 0.000000 33.418999 13.429000 22.302240 # Ca LIG
328 28 2 0.000000 46.466999 36.028000 22.302240 # Ca LIG
329 17 3 0.000000 6.944000 12.355000 23.250240 # Cb LIG
330 18 3 0.000000 19.992001 34.953999 23.250240 # Cb LIG
331 19 3 0.000000 33.039001 12.355000 23.250240 # Cb LIG
332 20 3 0.000000 46.087002 34.953999 23.250240 # Cb LIG
333 9 4 0.000000 7.378000 12.327000 17.730240 # Cc LIG
334 10 4 0.000000 20.424999 34.925999 17.730240 # Cc LIG
335 11 4 0.000000 33.473000 12.327000 17.730240 # Cc LIG
336 12 4 0.000000 46.521000 34.925999 17.730240 # Cc LIG
337 17 5 0.000000 6.111000 11.337000 22.770241 # Cd LIG
338 18 5 0.000000 19.159000 33.936001 22.770241 # Cd LIG
339 19 5 0.000000 32.206001 11.337000 22.770241 # Cd LIG
340 20 5 0.000000 45.254002 33.936001 22.770241 # Cd LIG
341 17 6 0.000000 5.790000 11.379000 21.732241 # H LIG
342 18 6 0.000000 18.837000 33.978001 21.732241 # H LIG
343 19 6 0.000000 31.885000 11.379000 21.732241 # H LIG
344 20 6 0.000000 44.932999 33.978001 21.732241 # H LIG
345 25 8 0.000000 6.857000 13.431000 21.113241 # Ob LIG
346 26 8 0.000000 19.905001 36.029999 21.113241 # Ob LIG
347 27 8 0.000000 32.952000 13.431000 21.113241 # Ob LIG
348 28 8 0.000000 46.000000 36.029999 21.113241 # Ob LIG
349 25 7 0.000000 8.133000 14.336000 22.723240 # Oa LIG
350 26 7 0.000000 21.180000 36.936001 22.723240 # Oa LIG
351 27 7 0.000000 34.228001 14.336000 22.723240 # Oa LIG
352 28 7 0.000000 47.276001 36.936001 22.723240 # Oa LIG
353 25 10 0.000000 8.790000 16.146999 22.015240 # Zn LIG
354 26 10 0.000000 21.837000 38.745998 22.015240 # Zn LIG
355 27 10 0.000000 34.884998 16.146999 22.015240 # Zn LIG
356 28 10 0.000000 47.932999 38.745998 22.015240 # Zn LIG
357 28 10 0.000000 9.589000 14.447000 17.427240 # Zn LIG
358 28 10 0.000000 22.636000 37.046001 17.427240 # Zn LIG
359 28 10 0.000000 35.683998 14.447000 17.427240 # Zn LIG
360 28 10 0.000000 48.731998 37.046001 17.427240 # Zn LIG
361 28 7 0.000000 8.349000 15.921000 18.135241 # Oa LIG
362 28 7 0.000000 21.396999 38.520000 18.135241 # Oa LIG
363 28 7 0.000000 34.445000 15.921000 18.135241 # Oa LIG
364 28 7 0.000000 47.492001 38.520000 18.135241 # Oa LIG
365 13 7 0.000000 9.613000 14.941000 20.429241 # Oa LIG
366 14 7 0.000000 22.660999 37.540001 20.429241 # Oa LIG
367 15 7 0.000000 35.709000 14.941000 20.429241 # Oa LIG
368 16 7 0.000000 48.756001 37.540001 20.429241 # Oa LIG
369 28 9 0.000000 7.380000 16.413000 20.600241 # Oc LIG
370 28 9 0.000000 20.427999 39.013000 20.600241 # Oc LIG
371 28 9 0.000000 33.476002 16.413000 20.600241 # Oc LIG
372 28 9 0.000000 46.522999 39.013000 20.600241 # Oc LIG
373 28 10 0.000000 8.790000 31.212999 19.721241 # Zn LIG
374 28 10 0.000000 21.837000 8.614000 19.721241 # Zn LIG
375 28 10 0.000000 34.884998 31.212999 19.721241 # Zn LIG
376 28 10 0.000000 47.932999 8.614000 19.721241 # Zn LIG
377 28 10 0.000000 9.589000 29.513000 22.015240 # Zn LIG
378 28 10 0.000000 22.636000 6.914000 22.015240 # Zn LIG
379 28 10 0.000000 35.683998 29.513000 22.015240 # Zn LIG
380 28 10 0.000000 48.731998 6.914000 22.015240 # Zn LIG
381 28 7 0.000000 9.613000 30.007000 18.135241 # Oa LIG
382 28 7 0.000000 22.660999 7.408000 18.135241 # Oa LIG
383 28 7 0.000000 35.709000 30.007000 18.135241 # Oa LIG
384 28 7 0.000000 48.756001 7.408000 18.135241 # Oa LIG
385 28 7 0.000000 8.349000 30.987000 22.723240 # Oa LIG
386 28 7 0.000000 21.396999 8.388000 22.723240 # Oa LIG
387 28 7 0.000000 34.445000 30.987000 22.723240 # Oa LIG
388 28 7 0.000000 47.492001 8.388000 22.723240 # Oa LIG
389 28 7 0.000000 4.698000 21.743999 20.861240 # Oa LIG
390 28 7 0.000000 17.746000 44.342999 20.861240 # Oa LIG
391 28 7 0.000000 30.794001 21.743999 20.861240 # Oa LIG
392 28 7 0.000000 43.841000 44.342999 20.861240 # Oa LIG
393 28 9 0.000000 5.667000 21.252001 18.396240 # Oc LIG
394 28 9 0.000000 18.715000 43.851002 18.396240 # Oc LIG
395 28 9 0.000000 31.763000 21.252001 18.396240 # Oc LIG
396 28 9 0.000000 44.810001 43.851002 18.396240 # Oc LIG
397 28 10 0.000000 4.258000 21.518000 23.863241 # Zn LIG
398 29 10 0.000000 17.306000 44.118000 23.863241 # Zn LIG
399 28 10 0.000000 30.353001 21.518000 23.863241 # Zn LIG
400 30 10 0.000000 43.401001 44.118000 23.863241 # Zn LIG
401 31 10 0.000000 8.790000 1.081000 17.427240 # Zn LIG
402 28 10 0.000000 21.837000 23.680000 17.427240 # Zn LIG
403 32 10 0.000000 34.884998 1.081000 17.427240 # Zn LIG
404 28 10 0.000000 47.932999 23.680000 17.427240 # Zn LIG
405 28 7 0.000000 8.349000 0.855000 20.429241 # Oa LIG
406 28 7 0.000000 21.396999 23.454000 20.429241 # Oa LIG
407 28 7 0.000000 34.445000 0.855000 20.429241 # Oa LIG
408 28 7 0.000000 47.492001 23.454000 20.429241 # Oa LIG
409 28 9 0.000000 7.380000 1.347000 22.894241 # Oc LIG
410 28 9 0.000000 20.427999 23.947001 22.894241 # Oc LIG
411 28 9 0.000000 33.476002 1.347000 22.894241 # Oc LIG
412 28 9 0.000000 46.522999 23.947001 22.894241 # Oc LIG
413 28 9 0.000000 4.857000 39.480000 18.396240 # Oc LIG
414 28 9 0.000000 17.905001 16.881001 18.396240 # Oc LIG
415 28 9 0.000000 30.952999 39.480000 18.396240 # Oc LIG
416 28 9 0.000000 44.000000 16.881001 18.396240 # Oc LIG
417 28 10 0.000000 5.331000 38.126999 23.863241 # Zn LIG
418 28 10 0.000000 18.378000 15.527000 23.863241 # Zn LIG
419 28 10 0.000000 31.426001 38.126999 23.863241 # Zn LIG
420 28 10 0.000000 44.473999 15.527000 23.863241 # Zn LIG
421 28 2 0.000000 5.724000 39.301998 21.282242 # Ca LIG
422 28 2 0.000000 18.771999 16.702999 21.282242 # Ca LIG
423 28 2 0.000000 31.819000 39.301998 21.282242 # Ca LIG
424 28 2 0.000000 44.867001 16.702999 21.282242 # Ca LIG
425 28 3 0.000000 6.104000 40.375999 20.334240 # Cb LIG
426 28 3 0.000000 19.150999 17.777000 20.334240 # Cb LIG
427 28 3 0.000000 32.199001 40.375999 20.334240 # Cb LIG
428 28 3 0.000000 45.247002 17.777000 20.334240 # Cb LIG
429 28 4 0.000000 5.670000 40.403999 18.972240 # Cc LIG
430 28 4 0.000000 18.718000 17.805000 18.972240 # Cc LIG
431 28 4 0.000000 31.764999 40.403999 18.972240 # Cc LIG
432 28 4 0.000000 44.813000 17.805000 18.972240 # Cc LIG
433 28 5 0.000000 6.937000 41.394001 20.814240 # Cd LIG
434 28 5 0.000000 19.983999 18.795000 20.814240 # Cd LIG
435 28 5 0.000000 33.032001 41.394001 20.814240 # Cd LIG
436 28 5 0.000000 46.080002 18.795000 20.814240 # Cd LIG
437 28 6 0.000000 7.258000 41.353001 21.852242 # H LIG
438 28 6 0.000000 20.306000 18.754000 21.852242 # H LIG
439 28 6 0.000000 33.353001 41.353001 21.852242 # H LIG
440 28 6 0.000000 46.401001 18.754000 21.852242 # H LIG
441 28 8 0.000000 6.191000 39.299999 22.470242 # Ob LIG
442 28 8 0.000000 19.238001 16.701000 22.470242 # Ob LIG
443 28 8 0.000000 32.285999 39.299999 22.470242 # Ob LIG
444 28 8 0.000000 45.334000 16.701000 22.470242 # Ob LIG
445 28 7 0.000000 4.915000 38.395000 20.861240 # Oa LIG
446 28 7 0.000000 17.962999 15.796000 20.861240 # Oa LIG
447 28 7 0.000000 31.010000 38.395000 20.861240 # Oa LIG
448 28 7 0.000000 44.057999 15.796000 20.861240 # Oa LIG
449 28 3 0.000000 6.944000 42.487000 18.662241 # Cb LIG
450 28 3 0.000000 19.992001 19.888000 18.662241 # Cb LIG
451 28 3 0.000000 33.039001 42.487000 18.662241 # Cb LIG
452 28 3 0.000000 46.087002 19.888000 18.662241 # Cb LIG
453 28 4 0.000000 7.378000 42.459000 20.024240 # Cc LIG
454 28 4 0.000000 20.424999 19.860001 20.024240 # Cc LIG
455 28 4 0.000000 33.473000 42.459000 20.024240 # Cc LIG
456 28 4 0.000000 46.521000 19.860001 20.024240 # Cc LIG
457 28 5 0.000000 6.111000 41.469002 18.182240 # Cd LIG
458 28 5 0.000000 19.159000 18.870001 18.182240 # Cd LIG
459 28 5 0.000000 32.206001 41.469002 18.182240 # Cd LIG
460 28 5 0.000000 45.254002 18.870001 18.182240 # Cd LIG
461 28 7 0.000000 8.133000 44.469002 18.135241 # Oa LIG
462 28 7 0.000000 21.180000 21.868999 18.135241 # Oa LIG
463 28 7 0.000000 34.228001 44.469002 18.135241 # Oa LIG
464 28 7 0.000000 47.276001 21.868999 18.135241 # Oa LIG
465 28 9 0.000000 8.191000 43.382999 20.600241 # Oc LIG
466 28 9 0.000000 21.238001 20.784000 20.600241 # Oc LIG
467 28 9 0.000000 34.285999 43.382999 20.600241 # Oc LIG
468 28 9 0.000000 47.334000 20.784000 20.600241 # Oc LIG
469 28 10 0.000000 7.717000 44.737000 22.015240 # Zn LIG
470 28 10 0.000000 20.764999 22.138000 22.015240 # Zn LIG
471 28 10 0.000000 33.812000 44.737000 22.015240 # Zn LIG
472 28 10 0.000000 46.860001 22.138000 22.015240 # Zn LIG
473 28 10 0.000000 9.589000 44.578999 19.721241 # Zn LIG
474 28 10 0.000000 22.636000 21.980000 19.721241 # Zn LIG
475 28 10 0.000000 35.683998 44.578999 19.721241 # Zn LIG
476 28 10 0.000000 48.731998 21.980000 19.721241 # Zn LIG
477 28 9 0.000000 5.667000 36.318001 22.984241 # Oc LIG
478 28 9 0.000000 18.715000 13.719000 22.984241 # Oc LIG
479 28 9 0.000000 31.763000 36.318001 22.984241 # Oc LIG
480 28 9 0.000000 44.810001 13.719000 22.984241 # Oc LIG
481 28 2 0.000000 7.324000 43.561001 17.714241 # Ca LIG
482 28 2 0.000000 20.371000 20.962000 17.714241 # Ca LIG
483 28 2 0.000000 33.418999 43.561001 17.714241 # Ca LIG
484 28 2 0.000000 46.466999 20.962000 17.714241 # Ca LIG
485 28 8 0.000000 6.857000 43.563999 23.407242 # Ob LIG
486 28 8 0.000000 19.905001 20.964001 23.407242 # Ob LIG
487 28 8 0.000000 32.952000 43.563999 23.407242 # Ob LIG
488 28 8 0.000000 46.000000 20.964001 23.407242 # Ob LIG
489 28 7 0.000000 9.613000 45.073002 22.723240 # Oa LIG
490 28 7 0.000000 22.660999 22.474001 22.723240 # Oa LIG
491 28 7 0.000000 35.709000 45.073002 22.723240 # Oa LIG
492 28 7 0.000000 48.756001 22.474001 22.723240 # Oa LIG
493 28 10 0.000000 3.459000 38.285000 19.275242 # Zn LIG
494 28 10 0.000000 16.507000 15.685000 19.275242 # Zn LIG
495 28 10 0.000000 29.554001 38.285000 19.275242 # Zn LIG
496 28 10 0.000000 42.602001 15.685000 19.275242 # Zn LIG
497 28 7 0.000000 4.698000 36.810001 18.567242 # Oa LIG
498 28 7 0.000000 17.746000 14.211000 18.567242 # Oa LIG
499 28 7 0.000000 30.794001 36.810001 18.567242 # Oa LIG
500 28 7 0.000000 43.841000 14.211000 18.567242 # Oa LIG
501 28 10 0.000000 4.258000 36.584999 21.569241 # Zn LIG
502 28 10 0.000000 17.306000 13.985000 21.569241 # Zn LIG
503 28 10 0.000000 30.353001 36.584999 21.569241 # Zn LIG
504 28 10 0.000000 43.401001 13.985000 21.569241 # Zn LIG
505 28 7 0.000000 3.434000 37.790001 23.155241 # Oa LIG
506 28 7 0.000000 16.482000 15.191000 23.155241 # Oa LIG
507 28 7 0.000000 29.530001 37.790001 23.155241 # Oa LIG
508 28 7 0.000000 42.577000 15.191000 23.155241 # Oa LIG
509 28 9 0.000000 2.523000 22.131001 22.984241 # Oc LIG
510 28 9 0.000000 15.571000 44.730999 22.984241 # Oc LIG
511 28 9 0.000000 28.618999 22.131001 22.984241 # Oc LIG
512 28 9 0.000000 41.666000 44.730999 22.984241 # Oc LIG
513 28 4 0.000000 1.317000 22.372999 23.559240 # Cc LIG
514 28 4 0.000000 14.364000 44.972000 23.559240 # Cc LIG
515 28 4 0.000000 27.412001 22.372999 23.559240 # Cc LIG
516 28 4 0.000000 40.459999 44.972000 23.559240 # Cc LIG
517 28 2 0.000000 10.803000 44.826000 22.302240 # Ca LIG
518 28 2 0.000000 23.851000 22.226999 22.302240 # Ca LIG
519 28 2 0.000000 36.898998 44.826000 22.302240 # Ca LIG
520 28 2 0.000000 49.945999 22.226999 22.302240 # Ca LIG
521 28 3 0.000000 11.923000 45.034000 23.250240 # Cb LIG
522 28 3 0.000000 24.971001 22.434999 23.250240 # Cb LIG
523 28 3 0.000000 38.019001 45.034000 23.250240 # Cb LIG
524 28 3 0.000000 51.066002 22.434999 23.250240 # Cb LIG
525 28 5 0.000000 0.174000 22.223000 22.770241 # Cd LIG
526 28 5 0.000000 13.222000 44.821999 22.770241 # Cd LIG
527 28 5 0.000000 26.268999 22.223000 22.770241 # Cd LIG
528 28 5 0.000000 39.317001 44.821999 22.770241 # Cd LIG
529 28 6 0.000000 0.299000 21.924000 21.732241 # H LIG
530 28 6 0.000000 13.346000 44.522999 21.732241 # H LIG
531 28 6 0.000000 26.393999 21.924000 21.732241 # H LIG
532 28 6 0.000000 39.442001 44.522999 21.732241 # H LIG
533 28 8 0.000000 11.035000 44.421001 21.113241 # Ob LIG
534 28 8 0.000000 24.083000 21.822001 21.113241 # Ob LIG