LAMMPS (30 Jul 2016)

# ----------------- Init Section -----------------

units real
processors 1 1 1
newton off
atom_style full
atom_modify sort 0 10.0

# ----------------- Atom Definition Section -----------------

read_data "MgMOF74-Pressure50000.data"
  orthogonal box = (0.4447 0.31425 -0.401771) to (26.5587 45.5442 27.2652)
  1 by 1 by 1 MPI processor grid
  reading atoms ...
  1307 atoms
  0 = max # of 1-2 neighbors
  0 = max # of 1-3 neighbors
  0 = max # of 1-4 neighbors
  1 = max # of special neighbors

# ----------------- Settings Section -----------------

#include "MgMOF74-Pressure50000.in.settings"

# ----------------- Run Section -----------------

# define groups
group GUEST type 1
11 atoms in group GUEST
group MOF type 2 3 4 5 6 7 8 9 10
1296 atoms in group MOF

# define computes
compute comT all com
compute comG GUEST com
compute comM MOF com

# settings
timestep           0.5
thermo             200
thermo_style       custom step temp epair emol etotal c_comT[1] c_comT[2] c_comT[3] c_comG[1] c_comG[2] c_comG[3] c_comM[1] c_comM[2] c_comM[3]
restart            2000000 sim.restart

# reset box to start at 0
change_box         all x delta $(-xlo) $(-xlo) y delta $(-ylo) $(-ylo) z delta $(-zlo) $(-zlo) remap units box
change_box         all x delta -0.44469999999999998419 $(-xlo) y delta $(-ylo) $(-ylo) z delta $(-zlo) $(-zlo) remap units box
change_box         all x delta -0.44469999999999998419 -0.44469999999999998419 y delta $(-ylo) $(-ylo) z delta $(-zlo) $(-zlo) remap units box
change_box         all x delta -0.44469999999999998419 -0.44469999999999998419 y delta -0.3142499999999999738 $(-ylo) z delta $(-zlo) $(-zlo) remap units box
change_box         all x delta -0.44469999999999998419 -0.44469999999999998419 y delta -0.3142499999999999738 -0.3142499999999999738 z delta $(-zlo) $(-zlo) remap units box
change_box         all x delta -0.44469999999999998419 -0.44469999999999998419 y delta -0.3142499999999999738 -0.3142499999999999738 z delta 0.40177099999999998925 $(-zlo) remap units box
change_box         all x delta -0.44469999999999998419 -0.44469999999999998419 y delta -0.3142499999999999738 -0.3142499999999999738 z delta 0.40177099999999998925 0.40177099999999998925 remap units box
  orthogonal box = (0 0.31425 -0.401771) to (26.114 45.5442 27.2652)
  orthogonal box = (0 0 -0.401771) to (26.114 45.23 27.2652)
  orthogonal box = (0 0 0) to (26.114 45.23 27.667)
write_data         data_changebox.data

# get rid of overlapping atoms
run                0
WARNING: No fixes defined, atoms won't move (../verlet.cpp:55)
Memory usage per processor = 0.478851 Mbytes
Step Temp E_pair E_mol TotEng comT[1] comT[2] comT[3] comG[1] comG[2] comG[3] comM[1] comM[2] comM[3] 
       0            0            0            0            0    12.683318    22.424053    14.189073    19.734246    34.636249    9.6241346    12.612127     22.30075    14.235163 
Loop time of 9.53674e-07 on 1 procs for 0 steps with 1307 atoms

0.0% CPU use with 1 MPI tasks x no OpenMP threads

MPI task timing breakdown:
Section |  min time  |  avg time  |  max time  |%varavg| %total
---------------------------------------------------------------
Pair    | 0          | 0          | 0          |   0.0 |  0.00
Bond    | 0          | 0          | 0          |   0.0 |  0.00
Neigh   | 0          | 0          | 0          |   0.0 |  0.00
Comm    | 0          | 0          | 0          |   0.0 |  0.00
Output  | 0          | 0          | 0          |   0.0 |  0.00
Modify  | 0          | 0          | 0          |   0.0 |  0.00
Other   |            | 9.537e-07  |            |       |100.00

Nlocal:    1307 ave 1307 max 1307 min
Histogram: 1 0 0 0 0 0 0 0 0 0
Nghost:    0 ave 0 max 0 min
Histogram: 1 0 0 0 0 0 0 0 0 0
Neighs:    0 ave 0 max 0 min
Histogram: 1 0 0 0 0 0 0 0 0 0

Total # of neighbors = 0
Ave neighs/atom = 0
Ave special neighs/atom = 0
Neighbor list builds = 0
Dangerous builds = 0
velocity           GUEST create 313 1738991
fix                1 GUEST nvt temp 313 313 50.0
pair_style         soft 5.0
pair_coeff         * * 0.0 5.0
kspace_style       none
variable           prefactor equal ramp(1.0,20.0)
fix                2 all adapt 1 pair soft a * * v_prefactor
run                200000
Neighbor list info ...
  1 neighbor list requests
  update every 1 steps, delay 10 steps, check yes
  max neighbors/atom: 2000, page size: 100000
  master list distance cutoff = 7
  ghost atom cutoff = 7
  binsize = 3.5 -> bins = 8 13 8
Memory usage per processor = 5.44173 Mbytes
Step Temp E_pair E_mol TotEng comT[1] comT[2] comT[3] comG[1] comG[2] comG[3] comM[1] comM[2] comM[3] 
       0    2.3966309    8995.3087            0    9004.6386    12.683318    22.424053    14.189073    19.734246    34.636249    9.6241346    12.612127     22.30075    14.235163 
     200    2.2907941    9161.5592            0    9170.4771    12.683325    22.424106    14.189047    19.734985     34.64157    9.6215711    12.612127     22.30075    14.235163 
     400    3.8749575    9316.4908            0    9331.5758    12.683326    22.424439    14.188995     19.73501     34.67484    9.6163489    12.612127     22.30075    14.235163 
     600    4.4302968    9455.0828            0    9472.3297    12.683272    22.425243    14.189038    19.729672    34.755333    9.6207072    12.612127     22.30075    14.235163 
     800    3.0605492    9601.5087            0    9613.4233    12.683198    22.426655    14.189175    19.722252    34.896554    9.6343428    12.612127     22.30075    14.235163 
    1000    2.3847487    9759.5593            0     9768.843    12.683137    22.428697    14.189368    19.716144    35.100786    9.6537117    12.612127     22.30075    14.235163 
    1200    2.4931385    9919.8074            0    9929.5131    12.683025    22.431171    14.189598    19.704976    35.348319    9.6767076    12.612127     22.30075    14.235163 
    1400    1.9327109    10085.994            0    10093.518    12.682862    22.433533    14.189848     19.68859    35.584601    9.7017292    12.612127     22.30075    14.235163 
    1600    3.6118977    10255.087            0    10269.148    12.682673    22.436081    14.190142     19.66974    35.839527     9.731123    12.612127     22.30075    14.235163 
    1800    1.5856414    10424.224            0    10430.397    12.682489    22.438575     14.19043    19.651288    36.089056    9.7599027    12.612127     22.30075    14.235163 
    2000    2.7509841    10593.757            0    10604.467    12.682316    22.440905    14.190701    19.633973    36.322177     9.787017    12.612127     22.30075    14.235163 
    2200    1.9572283    10769.265            0    10776.885    12.682094    22.443263    14.191121     19.61182    36.558027    9.8291154    12.612127     22.30075    14.235163 
    2400    2.6750705     10942.34            0    10952.754    12.681728    22.445225    14.192075    19.575178    36.754286    9.9245294    12.612127     22.30075    14.235163 
    2600    2.2730563    11105.679            0    11114.527    12.681376    22.445564    14.193181    19.539917     36.78825    10.035184    12.612127     22.30075    14.235163 
    2800    2.2902368    11272.079            0    11280.995    12.681166    22.444274    14.194137    19.518928    36.659192    10.130754    12.612127     22.30075    14.235163 
    3000    2.5728077    11440.272            0    11450.287    12.680957     22.44177    14.195246    19.497999    36.408662     10.24177    12.612127     22.30075    14.235163 
    3200    1.1605563    11608.654            0    11613.172    12.680784    22.439399    14.196187    19.480731    36.171497    10.335918    12.612127     22.30075    14.235163 
    3400     3.053143    11777.447            0    11789.333    12.680632    22.437087    14.197099    19.465525    35.940219    10.427102    12.612127     22.30075    14.235163 
    3600    1.4477808    11949.141            0    11954.777    12.680523    22.434839    14.198074    19.454665     35.71528    10.524668    12.612127     22.30075    14.235163 
    3800    2.8284785    12120.702            0    12131.713     12.68062    22.433184    14.199442    19.464336    35.549742    10.661538    12.612127     22.30075    14.235163 
    4000    2.1650285    12287.076            0    12295.504    12.680857    22.432412    14.201207    19.488036     35.47251    10.838128    12.612127     22.30075    14.235163 
    4200    2.2734871    12454.139            0    12462.989     12.68102    22.432419    14.202622    19.504384    35.473224     10.97963    12.612127     22.30075    14.235163 
    4400    2.8786121    12623.156            0    12634.362    12.681193    22.432371     14.20437    19.521621    35.468394    11.154477    12.612127     22.30075    14.235163 
    4600    1.9906746     12792.77            0     12800.52    12.681369    22.432402    14.205738    19.539276    35.471466     11.29134    12.612127     22.30075    14.235163 
    4800    2.7954428    12963.168            0    12974.051    12.681784    22.433075    14.207292    19.580761    35.538766    11.446899    12.612127     22.30075    14.235163 
    5000    1.2290369    13132.652            0    13137.437    12.682416    22.434571    14.208735    19.644046    35.688458    11.591242    12.612127     22.30075    14.235163 
    5200    1.6240196    13302.179            0    13308.502    12.682993    22.436121    14.209868    19.701749    35.843523    11.704551    12.612127     22.30075    14.235163 
    5400    3.1038174    13470.413            0    13482.496    12.683775    22.438106    14.211849    19.779953    36.042165    11.902721    12.612127     22.30075    14.235163 
    5600    1.6883845    13639.032            0    13645.604    12.684274    22.439292     14.21376    19.829909    36.160816    12.093906    12.612127     22.30075    14.235163 
    5800     3.549194     13808.42            0    13822.237    12.684571    22.440243    14.215886    19.859552    36.255935    12.306583    12.612127     22.30075    14.235163 
    6000    2.2542367    13977.296            0    13986.072     12.68479    22.441087    14.218154    19.881499     36.34038    12.533512    12.612127     22.30075    14.235163 
    6200    2.5250874     14145.82            0     14155.65    12.684964    22.441698    14.220093     19.89895     36.40143    12.727522    12.612127     22.30075    14.235163 
    6400    2.3049027    14315.424            0    14324.397    12.685134    22.442262    14.222381    19.915878    36.457909    12.956383    12.612127     22.30075    14.235163 
    6600    2.1152685    14484.926            0     14493.16    12.685125    22.442224    14.224293    19.915042    36.454078    13.147655    12.612127     22.30075    14.235163 
    6800    2.6346395    14652.818            0    14663.074    12.684861     22.44148     14.22678    19.888604    36.379672    13.396443    12.612127     22.30075    14.235163 
    7000    2.1302837    14822.029            0    14830.322    12.684523    22.440666    14.229015    19.854763    36.298273    13.620104    12.612127     22.30075    14.235163 
    7200    3.6184599     14993.12            0    15007.207    12.684057    22.439835    14.231755    19.808209    36.215052    13.894133    12.612127     22.30075    14.235163 
    7400    2.0912223    15162.846            0    15170.987    12.683712    22.439147    14.234174    19.773623    36.146222    14.136176    12.612127     22.30075    14.235163 
    7600    2.8362119    15330.371            0    15341.413    12.683512    22.437983    14.236639    19.753656    36.029822    14.382758    12.612127     22.30075    14.235163 
    7800    1.7187405    15498.794            0    15505.485    12.683321    22.436773    14.238454     19.73452    35.908733    14.564385    12.612127     22.30075    14.235163 
    8000    2.8405162    15667.651            0    15678.709    12.682996     22.43526      14.2405    19.702054    35.757409    14.769021    12.612127     22.30075    14.235163 
    8200    2.1937186    15836.687            0    15845.227    12.682685    22.433835    14.242447    19.670905    35.614796    14.963824    12.612127     22.30075    14.235163 
    8400    2.3877885    16006.115            0    16015.411    12.682397    22.432493    14.244378    19.642148    35.480602    15.156992    12.612127     22.30075    14.235163 
    8600    2.3478824    16176.347            0    16185.487    12.682239    22.431347    14.246489    19.626319    35.365982    15.368176    12.612127     22.30075    14.235163 
    8800    3.9242338    16344.824            0    16360.101    12.682588    22.430655     14.24922    19.661183    35.296683    15.641421    12.612127     22.30075    14.235163 
    9000    1.8100371    16513.764            0    16520.811    12.683165    22.430523    14.251556    19.718965    35.283523    15.875071    12.612127     22.30075    14.235163 
    9200    2.9963698    16684.585            0    16696.249    12.683679     22.43089     14.25402    19.770387    35.320261    16.121577    12.612127     22.30075    14.235163 
    9400    1.3811734    16853.681            0    16859.058    12.683784    22.431736    14.256533    19.780856    35.404808    16.373003    12.612127     22.30075    14.235163 
    9600    1.8919897    17021.444            0    17028.809     12.68348    22.432579     14.25812    19.750469    35.489201     16.53177    12.612127     22.30075    14.235163 
    9800    2.7073889    17190.424            0    17200.964    12.682993    22.433683    14.260023    19.701733     35.59967    16.722141    12.612127     22.30075    14.235163 
   10000    1.4339084    17359.234            0    17364.816    12.682764    22.434532    14.261671    19.678781    35.684541    16.887054    12.612127     22.30075    14.235163 
   10200    3.3543277    17528.017            0    17541.075    12.682669    22.435263     14.26323    19.669273    35.757686    17.043009    12.612127     22.30075    14.235163 
   10400    1.9506359    17697.176            0    17704.769    12.682566    22.436106    14.265029    19.659063    35.842024    17.223014    12.612127     22.30075    14.235163 
   10600    3.4032528    17867.015            0    17880.263    12.682548    22.436918    14.266685     19.65725    35.923228    17.388637    12.612127     22.30075    14.235163 
   10800    1.5827502    18038.728            0    18044.889    12.683025    22.438009    14.268671    19.704891    36.032435    17.587285    12.612127     22.30075    14.235163 
   11000    3.2570066    18205.949            0    18218.628    12.684717    22.438821    14.270211    19.874234    36.113664    17.741439    12.612127     22.30075    14.235163 
   11200    1.7348757    18374.171            0    18380.925    12.687029    22.439465    14.271763    20.105538    36.178101    17.896682    12.612127     22.30075    14.235163 
   11400    2.4688895    18544.401            0    18554.012    12.688746    22.439893    14.273206     20.27726    36.220893    18.041002    12.612127     22.30075    14.235163 
   11600    2.4886179    18713.082            0     18722.77    12.689821    22.440375     14.27497    20.384862    36.269093    18.217483    12.612127     22.30075    14.235163 
   11800    1.5096693    18881.412            0    18887.289    12.690088     22.44078    14.276589    20.411574    36.309651    18.379471    12.612127     22.30075    14.235163 
   12000    2.6161976    19050.458            0    19060.642    12.690096    22.441005    14.278033    20.412316    36.332167    18.523934    12.612127     22.30075    14.235163 
   12200    1.9953856    19221.596            0    19229.364    12.689858    22.441062    14.280057     20.38852    36.337826    18.726413    12.612127     22.30075    14.235163 
   12400     4.098735    19389.481            0    19405.437    12.688612    22.440446     14.28204    20.263856    36.276177    18.924804    12.612127     22.30075    14.235163 
   12600    2.0700031    19557.982            0    19566.041    12.686665    22.439442    14.284058    20.069117     36.17582    19.126672    12.612127     22.30075    14.235163 
   12800    2.8490294    19727.783            0    19738.874    12.684916    22.438542    14.285824    19.894161    36.085713    19.303352    12.612127     22.30075    14.235163 
   13000    1.6658683    19897.159            0    19903.644    12.682944    22.437526    14.287815    19.696865    35.984052    19.502542    12.612127     22.30075    14.235163 
   13200    2.4851134    20065.887            0    20075.561    12.681367    22.436712    14.289391    19.539024    35.902647    19.660228    12.612127     22.30075    14.235163 
   13400    2.2925394    20235.623            0    20244.547    12.679145    22.435725    14.291427    19.316731     35.80389     19.86391    12.612127     22.30075    14.235163 
   13600    3.2514411    20405.327            0    20417.985    12.676696    22.434608    14.293408    19.071766    35.692132     20.06202    12.612127     22.30075    14.235163 
   13800    2.2194751    20574.565            0    20583.205    12.674256    22.432891    14.295762    18.827658    35.520444    20.297522    12.612127     22.30075    14.235163 
   14000    2.5650906     20744.99            0    20754.976     12.67378    22.432034    14.297842    18.780013    35.434631    20.505633    12.612127     22.30075    14.235163 
   14200    2.1025787    20912.334            0     20920.52    12.674849    22.432097     14.30043    18.886989     35.44096    20.764559    12.612127     22.30075    14.235163 
   14400    2.2699814    21080.597            0    21089.434    12.676225    22.432633    14.302288    19.024686      35.4946    20.950454    12.612127     22.30075    14.235163 
   14600    2.6356503    21250.022            0    21260.282    12.678011    22.433378    14.304454    19.203314    35.569123    21.167108    12.612127     22.30075    14.235163 
   14800    1.5125092    21418.595            0    21424.483    12.679431    22.433977    14.306149    19.345386    35.629007    21.336664    12.612127     22.30075    14.235163 
   15000     2.638991    21588.565            0    21598.838    12.680993    22.434825     14.30812    19.501653    35.713901    21.533929    12.612127     22.30075    14.235163 
   15200    2.3143486    21757.764            0    21766.773     12.68208    22.436274    14.310172     19.61044    35.858856    21.739211    12.612127     22.30075    14.235163 
   15400     2.581839    21925.931            0    21935.982    12.682578    22.438206    14.312049    19.660209    36.052117    21.926964    12.612127     22.30075    14.235163 
   15600    1.8390707      22095.3            0    22102.459    12.682922    22.439909    14.313673    19.694588    36.222458     22.08946    12.612127     22.30075    14.235163 
   15800    3.3869081    22264.211            0    22277.396     12.68342    22.441401      14.3157    19.744472    36.371796    22.292254    12.612127     22.30075    14.235163 
   16000    1.9210817    22433.716            0    22441.194     12.68379     22.44239     14.31756     19.78149     36.47068    22.478323    12.612127     22.30075    14.235163 
   16200    2.9587243     22602.82            0    22614.338    12.683653     22.44295    14.319512     19.76781    36.526693    22.673599    12.612127     22.30075    14.235163 
   16400    1.2710105     22771.65            0    22776.598     12.68309    22.443153    14.321255    19.711469    36.547023    22.847904    12.612127     22.30075    14.235163 
   16600    2.2907404    22941.327            0    22950.245    12.682267    22.443024    14.322731    19.629105    36.534166    22.995609    12.612127     22.30075    14.235163 
   16800    2.7106104    23112.293            0    23122.845    12.681449    22.442155    14.324616    19.547269    36.447159    23.184227    12.612127     22.30075    14.235163 
   17000     1.764105    23279.206            0    23286.074    12.681132    22.440462    14.326466    19.515506    36.277803    23.369278    12.612127     22.30075    14.235163 
   17200    2.6133607    23448.009            0    23458.183    12.680806    22.439092    14.327908    19.482985    36.140796    23.513482    12.612127     22.30075    14.235163 
   17400    2.4523287    23617.182            0    23626.728    12.680496    22.437519    14.329782     19.45189    35.983367    23.700957    12.612127     22.30075    14.235163 
   17600    2.3396087    23786.316            0    23795.424    12.680435    22.436205    14.331561    19.445828    35.851963    23.878963    12.612127     22.30075    14.235163 
   17800    3.1219525    23956.176            0    23968.329    12.680461    22.434849    14.333494    19.448422     35.71624    24.072306    12.612127     22.30075    14.235163 
   18000     1.731149    24126.007            0    24132.746    12.680531    22.433407     14.33559    19.455406    35.572051    24.282019    12.612127     22.30075    14.235163 
   18200    1.9364476    24298.404            0    24305.942    12.680753    22.432695    14.337288    19.477659     35.50081    24.451863    12.612127     22.30075    14.235163 
   18400    3.1852355    24466.842            0    24479.242    12.681272    22.433466    14.339405    19.529592    35.577947    24.663674    12.612127     22.30075    14.235163 
   18600    1.9461247    24632.522            0    24640.098    12.681936    22.435274    14.341161    19.596035    35.758825    24.839388    12.612127     22.30075    14.235163 
   18800    2.6075593    24802.017            0    24812.168    12.682607    22.436942    14.342635    19.663125    35.925706    24.986852    12.612127     22.30075    14.235163 
   19000    2.3033342     24972.11            0    24981.077    12.683368    22.438408     14.34424    19.739207    36.072327    25.147429    12.612127     22.30075    14.235163 
   19200    2.1010748    25141.254            0    25149.433    12.683929    22.439098      14.3455    19.795391    36.141379    25.273496    12.612127     22.30075    14.235163 
   19400    2.7450618    25310.884            0    25321.571    12.684237    22.439594    14.346997    19.826198    36.191015    25.423217    12.612127     22.30075    14.235163 
   19600    1.8175781     25479.38            0    25486.456     12.68431    22.440021    14.348072    19.833506     36.23372    25.530806    12.612127     22.30075    14.235163 
   19800    2.4505593    25648.146            0    25657.686    12.684571    22.440688     14.34902     19.85959    36.300477    25.625579    12.612127     22.30075    14.235163 
   20000    2.3819169    25817.265            0    25826.537    12.684922    22.441447    14.349953    19.894693    36.376366    25.718935    12.612127     22.30075    14.235163 
   20200    2.1722019    25986.394            0    25994.851    12.685155    22.442114    14.350827    19.918043    36.443142    25.806351    12.612127     22.30075    14.235163 
   20400    3.0620143    26157.143            0    26169.063    12.685172    22.442456    14.351706    19.919677     36.47726    25.894345    12.612127     22.30075    14.235163 
   20600    1.5672517    26326.684            0    26332.785    12.685681    22.442554    14.352591    19.970605    36.487132    25.982894    12.612127     22.30075    14.235163 
   20800    3.4070227    26493.346            0    26506.609    12.686595    22.441904    14.353529    20.062104    36.422121    26.076727    12.612127     22.30075    14.235163 
   21000    1.3994271     26661.72            0    26667.168    12.687351    22.440615     14.35457    20.137741    36.293137    26.180888    12.612127     22.30075    14.235163 
   21200    3.1602435    26830.787            0     26843.09    12.687952    22.439262    14.355521    20.197868    36.157754    26.276014    12.612127     22.30075    14.235163 
   21400    1.7347533    26999.748            0    27006.501    12.688587    22.437809    14.356538     20.26137    36.012379    26.377757    12.612127     22.30075    14.235163 
   21600    4.0372175    27168.919            0    27184.635    12.689189    22.436416    14.357505    20.321602     35.87305    26.474422    12.612127     22.30075    14.235163 
   21800    2.1165178    27339.266            0    27347.505    12.689916    22.434964     14.35858    20.394276    35.727777    26.582019    12.612127     22.30075    14.235163 
   22000    2.4807024    27510.956            0    27520.614     12.69011     22.43452    14.359328     20.41377    35.683338    26.656879    12.612127     22.30075    14.235163 
   22200    2.7265277    27679.928            0    27690.542    12.688526    22.434758    14.360182    20.255265    35.707144    26.742274    12.612127     22.30075    14.235163 
   22400    2.2188724    27848.752            0     27857.39    12.686404    22.435754    14.361076    20.042974    35.806867    26.831708    12.612127     22.30075    14.235163 
   22600    2.5242175    28017.989            0    28027.816    12.684754    22.437163    14.362284    19.877871    35.947744    26.952559    12.612127     22.30075    14.235163 
   22800    2.3665182    28186.864            0    28196.077    12.683139    22.437835    14.363718    19.716304    36.015062    27.096059    12.612127     22.30075    14.235163 
   23000    2.2611385    28353.723            0    28362.525    12.681568    22.437537    14.365288    19.559178    35.985236    27.253133    12.612127     22.30075    14.235163 
   23200    2.0057667     28521.97            0    28529.778    12.680283    22.437064    14.366624    19.430599    35.937925    27.386702    12.612127     22.30075    14.235163 
   23400    2.8132041    28692.556            0    28703.508    12.678816     22.43653    14.368292    19.283887    35.884472    27.553622    12.612127     22.30075    14.235163 
   23600    1.9480462    28862.943            0    28870.526      12.6786    22.436332    14.369718    19.262297    35.864617    27.696265    12.612127     22.30075    14.235163 
   23800    2.6510009    29029.915            0    29040.235    12.680213    22.436096     14.37109    19.423609     35.84106     27.83352    12.612127     22.30075    14.235163 
   24000    1.4246333    29199.191            0    29204.737    12.682133    22.435747    14.372212    19.615694    35.806143    27.945748    12.612127     22.30075    14.235163 
   24200    2.9720755    29370.157            0    29381.727    12.684084    22.435548    14.373308    19.810893    35.786255    28.055394    12.612127     22.30075    14.235163 
   24400    1.8740231    29539.108            0    29546.403    12.685971    22.435849    14.374274    19.999665    35.816376    28.152052    12.612127     22.30075    14.235163 
   24600    3.6678482    29707.703            0    29721.982    12.687354    22.436586    14.375012    20.137988    35.890019    28.225888    12.612127     22.30075    14.235163 
   24800    2.1311538     29876.73            0    29885.026    12.688797    22.437583    14.375884    20.282362    35.989843    28.313161    12.612127     22.30075    14.235163 
   25000     2.583422    30048.717            0    30058.774    12.688916    22.437708    14.376431    20.294317    36.002275    28.367848    12.612127     22.30075    14.235163 
   25200     2.375626    30214.696            0    30223.944    12.687398    22.436591    14.376699    20.142378    35.890548    28.394708    12.612127     22.30075    14.235163 
   25400    2.4554702    30382.931            0     30392.49    12.686016    22.435733    14.376883    20.004174    35.804763    28.413064    12.612127     22.30075    14.235163 
   25600    2.0789535     30551.64            0    30559.733    12.684757    22.435302    14.377166    19.878199    35.761605     28.44139    12.612127     22.30075    14.235163 
   25800    2.2764464     30720.75            0    30729.612     12.68378    22.435004    14.377429     19.78042    35.731827    28.467682    12.612127     22.30075    14.235163 
   26000    2.4731127    30889.889            0    30899.517    12.682538    22.434628    14.377767    19.656263    35.694182    28.501464    12.612127     22.30075    14.235163 
   26200    2.0000247    31059.302            0    31067.088    12.681535    22.434305    14.378045    19.555844    35.661838    28.529276    12.612127     22.30075    14.235163 
   26400    2.3811581    31230.192            0    31239.462    12.680622    22.433994    14.378313    19.464566     35.63077    28.556101    12.612127     22.30075    14.235163 
   26600    3.3204566    31401.284            0    31414.211    12.680068    22.434108    14.378367    19.409141     35.64211    28.561585    12.612127     22.30075    14.235163 
   26800    1.8625527    31567.765            0    31575.016    12.680248    22.434848    14.378006    19.427121    35.716161    28.525407    12.612127     22.30075    14.235163 
   27000    3.0328008    31735.655            0    31747.461    12.681187    22.436004    14.377494    19.521042    35.831816    28.474184    12.612127     22.30075    14.235163 
   27200    1.5238013    31905.837            0    31911.769    12.682403    22.437288    14.376986    19.642711    35.960322    28.423383    12.612127     22.30075    14.235163 
   27400    2.6933393    32075.552            0    32086.037    12.683563    22.438255    14.376604    19.758798    36.057006    28.385129    12.612127     22.30075    14.235163 
   27600    2.1981322    32245.389            0    32253.946    12.685122    22.439121    14.376257    19.914761    36.143645    28.350491    12.612127     22.30075    14.235163 
   27800    2.9915798    32413.201            0    32424.847    12.686949    22.439523    14.375951    20.097488    36.183881    28.319878    12.612127     22.30075    14.235163 
   28000    1.8769734    32581.284            0    32588.591    12.689247    22.439766    14.375577    20.327436    36.208207    28.282409    12.612127     22.30075    14.235163 
   28200    2.5010065    32751.444            0    32761.181    12.691033    22.439858    14.375247    20.506036    36.217426    28.249358    12.612127     22.30075    14.235163 
   28400    2.4943022    32921.236            0    32930.946    12.692453      22.4396    14.374791    20.648124    36.191636    28.203757    12.612127     22.30075    14.235163 
   28600     2.362377    33089.159            0    33098.356    12.692656    22.439459    14.374624    20.668469    36.177487     28.18709    12.612127     22.30075    14.235163 
   28800    1.5160428    33258.168            0     33264.07    12.692192    22.439539    14.374575    20.622062    36.185478     28.18217    12.612127     22.30075    14.235163 
   29000    3.2410253    33427.191            0    33439.808    12.691057    22.439514    14.374365    20.508486    36.182981    28.161126    12.612127     22.30075    14.235163 
   29200    1.8660171    33596.252            0    33603.517     12.68961    22.439342    14.374093    20.363687    36.165756    28.133911    12.612127     22.30075    14.235163 
   29400    2.2820803    33766.201            0    33775.085    12.688136    22.438942    14.373797     20.21621    36.125797    28.104381    12.612127     22.30075    14.235163 
   29600    2.6099676    33935.585            0    33945.745    12.686546    22.437938    14.373334    20.057205     36.02534    28.058033    12.612127     22.30075    14.235163 
   29800    1.7564697    34104.964            0    34111.802    12.685076    22.436673    14.372684    19.910117    35.898749    27.993028    12.612127     22.30075    14.235163 
   30000    3.0684009    34274.539            0    34286.484    12.684001    22.436269    14.371862    19.802608    35.858379    27.910808    12.612127     22.30075    14.235163 
   30200      2.17095    34443.625            0    34452.076    12.683655    22.436769    14.370701    19.767912    35.908359    27.794585    12.612127     22.30075    14.235163 
   30400    2.3075165    34611.656            0    34620.639    12.684306    22.437836    14.369773    19.833059    36.015087    27.701811    12.612127     22.30075    14.235163 
   30600    2.5662013    34780.492            0    34790.482    12.685464    22.439001    14.368931    19.948981    36.131702     27.61751    12.612127     22.30075    14.235163 
   30800    1.5490823    34949.194            0    34955.224    12.686778    22.439916      14.3682    20.080351    36.223185    27.544449    12.612127     22.30075    14.235163 
   31000    3.3219797    35118.331            0    35131.263    12.688158    22.440804    14.367456    20.218494     36.31203    27.470013    12.612127     22.30075    14.235163 
   31200    1.9509536    35288.292            0    35295.887    12.689654    22.441808    14.366617    20.368158    36.412465    27.386055    12.612127     22.30075    14.235163 
   31400    2.4062158    35458.527            0    35467.895    12.690653    22.442968     14.36572    20.468085    36.528518    27.296302    12.612127     22.30075    14.235163 
   31600    2.4010501    35626.693            0     35636.04    12.691025    22.444594    14.364675    20.505235    36.691219    27.191809    12.612127     22.30075    14.235163 
   31800    2.3620933    35797.067            0    35806.262    12.690981    22.445635    14.363927    20.500868    36.795373    27.116957    12.612127     22.30075    14.235163 
   32000    2.1278036    35967.241            0    35975.525    12.690517    22.445454     14.36338    20.454459    36.777244    27.062193    12.612127     22.30075    14.235163 
   32200    2.8776886    36134.912            0    36146.114    12.689284    22.444918    14.362988    20.331105    36.723615    27.022983    12.612127     22.30075    14.235163 
   32400    1.3002027    36302.784            0    36307.845    12.687399    22.444386    14.362509    20.142567    36.670434    26.975103    12.612127     22.30075    14.235163 
   32600    2.7300865    36472.244            0    36482.872    12.685694    22.443937    14.362072    19.971926    36.625464    26.931339    12.612127     22.30075    14.235163 
   32800    2.0612492    36641.083            0    36649.107    12.683614    22.443355    14.361554    19.763849    36.567292    26.879512    12.612127     22.30075    14.235163 
   33000    2.6327647    36809.966            0    36820.215    12.682162    22.442809    14.361239     19.61856    36.512635    26.847993    12.612127     22.30075    14.235163 
   33200    1.9679182    36980.965            0    36988.626    12.680505     22.44191    14.360964    19.452821     36.42265    26.820531    12.612127     22.30075    14.235163 
   33400    2.9205575    37149.949            0    37161.319    12.679247    22.440507    14.361043    19.326976     36.28233    26.828417    12.612127     22.30075    14.235163 
   33600    2.2625293    37319.773            0    37328.581    12.678488    22.438607    14.361351    19.251033    36.092252    26.859205    12.612127     22.30075    14.235163 
   33800    2.7315377    37488.697            0    37499.331    12.679474    22.437348    14.361763     19.34973    35.966312    26.900437    12.612127     22.30075    14.235163 
   34000    1.7300801    37657.408            0    37664.143    12.681143    22.436362    14.362293    19.516692    35.867644    26.953435    12.612127     22.30075    14.235163 
   34200    3.1790182    37824.744            0     37837.12    12.682528    22.435558    14.362733    19.655185    35.787203    26.997485    12.612127     22.30075    14.235163 
   34400    1.6577157    37994.652            0    38001.105    12.683962    22.434733    14.363292    19.798653    35.704658    27.053385    12.612127     22.30075    14.235163 
   34600    2.6324753    38163.246            0    38173.494    12.684616    22.434474    14.363922    19.864127    35.678725    27.116457    12.612127     22.30075    14.235163 
   34800    1.9425702    38333.579            0    38341.141    12.685478     22.43442    14.364743    19.950309     35.67332    27.198547    12.612127     22.30075    14.235163 
   35000    2.2368318    38501.396            0    38510.104    12.687051    22.434735    14.365611    20.107717    35.704843    27.285395    12.612127     22.30075    14.235163 
   35200    2.4259237    38670.822            0    38680.266    12.689729    22.435386    14.366947    20.375657     35.76999    27.419107    12.612127     22.30075    14.235163 
   35400    1.9251624    38843.027            0    38850.521    12.691537     22.43627    14.368079    20.556518    35.858434    27.532295    12.612127     22.30075    14.235163 
   35600    2.8891304    39010.046            0    39021.293    12.691942    22.438252    14.369558    20.596981    36.056718    27.680278    12.612127     22.30075    14.235163 
   35800    1.9612195    39177.859            0    39185.494    12.691362     22.44013    14.371004    20.538936     36.24463    27.824897    12.612127     22.30075    14.235163 
   36000    4.3577361    39348.755            0     39365.72    12.690462    22.441907    14.372752    20.448915    36.422338    27.999775    12.612127     22.30075    14.235163 
   36200    2.3159152     39517.79            0    39526.805    12.689125    22.442893    14.374892    20.315168    36.521027    28.213864    12.612127     22.30075    14.235163 
   36400    2.0779993    39685.134            0    39693.224    12.687443     22.44293      14.3769    20.146905     36.52469    28.414798    12.612127     22.30075    14.235163 
   36600    1.7918345    39855.004            0     39861.98    12.686036    22.442684    14.378649    20.006187    36.500087    28.589735    12.612127     22.30075    14.235163 
   36800    2.7242074    40025.346            0    40035.951    12.684888    22.441352    14.381003    19.891357    36.366892    28.825235    12.612127     22.30075    14.235163 
   37000    1.7082408    40192.607            0    40199.257    12.684892    22.439356    14.382762    19.891745    36.167164    29.001191    12.612127     22.30075    14.235163 
   37200    2.7862321    40362.828            0    40373.675    12.685179     22.43751    14.384238    19.920388    35.982491    29.148839    12.612127     22.30075    14.235163 
   37400    2.9041726    40535.069            0    40546.374    12.685879    22.436086    14.385989    19.990471    35.840018    29.324076    12.612127     22.30075    14.235163 
   37600    1.7810898    40700.138            0    40707.072    12.687278    22.435726    14.386948    20.130366    35.803988    29.420011    12.612127     22.30075    14.235163 
   37800     2.840654    40869.105            0    40880.163    12.688912    22.435404    14.387565     20.29384    35.771852    29.481765    12.612127     22.30075    14.235163 
   38000    1.1554027    41040.396            0    41044.894    12.690748    22.435387    14.388133    20.477544    35.770092    29.538581    12.612127     22.30075    14.235163 
   38200     2.885592    41207.522            0    41218.755    12.692246    22.436589    14.388404    20.627406     35.89037    29.565656    12.612127     22.30075    14.235163 
   38400    2.0526415     41377.02            0    41385.011    12.693826    22.438498    14.388635    20.785453    36.081326    29.588796    12.612127     22.30075    14.235163 
   38600    3.4542508    41547.887            0    41561.335    12.694768    22.440783    14.388839    20.879723    36.309978    29.609208    12.612127     22.30075    14.235163 
   38800    2.2864945    41719.727            0    41728.628    12.695259    22.443068    14.389253     20.92887    36.538574     29.65061    12.612127     22.30075    14.235163 
   39000    1.4404997    41884.614            0    41890.222    12.694545    22.443205    14.389712    20.857435    36.552205    29.696556    12.612127     22.30075    14.235163 
   39200    2.2858437    42053.296            0    42062.195    12.693362    22.443018     14.39007    20.739079     36.53354    29.732313    12.612127     22.30075    14.235163 
   39400    2.4490807    42222.167            0    42231.702    12.691852    22.442604    14.390461    20.588053    36.492137    29.771443    12.612127     22.30075    14.235163 
   39600    1.7383608    42392.039            0    42398.807    12.690575    22.442073    14.390765    20.460295    36.439019    29.801847    12.612127     22.30075    14.235163 
   39800    3.3737856    42560.546            0     42573.68    12.689727    22.440987    14.390902    20.375399    36.330303    29.815597    12.612127     22.30075    14.235163 
   40000    1.4598104    42731.894            0    42737.577    12.689227    22.439886    14.390989     20.32539    36.220232    29.824226    12.612127     22.30075    14.235163 
   40200    2.7300336    42901.644            0    42912.272    12.689143    22.439648    14.391373    20.316989     36.19638    29.862648    12.612127     22.30075    14.235163 
   40400    1.9488947    43068.648            0    43076.235    12.689207    22.440089    14.392069    20.323426    36.240494    29.932358    12.612127     22.30075    14.235163 
   40600    2.4766995    43237.459            0    43247.101    12.688998    22.440129     14.39282    20.302515    36.244493    30.007478    12.612127     22.30075    14.235163 
   40800    2.1065247    43408.156            0    43416.357    12.688634    22.440508    14.393901    20.266108    36.282442    30.115563    12.612127     22.30075    14.235163 
   41000    2.2830305    43577.017            0    43585.905    12.688036    22.441594      14.3951    20.206219    36.391091    30.235496    12.612127     22.30075    14.235163 
   41200    2.4278874    43745.969            0     43755.42    12.687185    22.443334    14.396839    20.121122    36.565108    30.409544    12.612127     22.30075    14.235163 
   41400    2.2038748    43914.729            0    43923.308    12.687129    22.444387    14.398165    20.115533    36.670504    30.542159    12.612127     22.30075    14.235163 
   41600    1.9512835    44084.618            0    44092.215    12.688026    22.445034    14.399648    20.205245    36.735252    30.690525    12.612127     22.30075    14.235163 
   41800    2.8575529    44252.921            0    44264.045    12.687772    22.444234    14.400806    20.179854    36.655136    30.806421    12.612127     22.30075    14.235163 
   42000    1.8261625    44422.536            0    44429.645    12.686415     22.44217    14.402029     20.04412    36.448708    30.928695    12.612127     22.30075    14.235163 
   42200    3.4723356    44590.742            0     44604.26    12.685415    22.439596    14.402911    19.944012    36.191232    31.017008    12.612127     22.30075    14.235163 
   42400    1.7172759    44759.898            0    44766.583    12.684594    22.436337     14.40383    19.861889     35.86519    31.108956    12.612127     22.30075    14.235163 
   42600    3.1103588    44929.052            0     44941.16    12.684374    22.433842    14.404578    19.839846    35.615499    31.183735    12.612127     22.30075    14.235163 
   42800    1.5572795    45099.449            0    45105.512    12.684533     22.43156    14.405271    19.855819     35.38722     31.25305    12.612127     22.30075    14.235163 
   43000    3.2314692    45268.796            0    45281.376    12.685522    22.430134    14.405624    19.954732    35.244636     31.28837    12.612127     22.30075    14.235163 
   43200    1.6329663    45439.863            0     45446.22    12.687121    22.429425    14.405922    20.114681    35.173656    31.318227    12.612127     22.30075    14.235163 
   43400    3.2353786    45609.451            0    45622.046    12.688653    22.430211     14.40672    20.267963     35.25229    31.397999    12.612127     22.30075    14.235163 
   43600    2.0272174    45776.351            0    45784.243    12.690167    22.432198    14.407879    20.419411    35.451123    31.513963    12.612127     22.30075    14.235163 
   43800    2.9035113    45945.142            0    45956.445    12.690973    22.434263     14.40895    20.500072    35.657672    31.621104    12.612127     22.30075    14.235163 
   44000    3.2432989    46120.938            0    46133.564    12.690255    22.437152    14.410273    20.428262    35.946697    31.753499    12.612127     22.30075    14.235163 
   44200    2.5458833    46281.792            0    46291.703    12.687779    22.439068    14.411291    20.180544    36.138397    31.855348    12.612127     22.30075    14.235163 
   44400    1.9894546      46451.8            0    46459.545    12.685361    22.440217    14.412037    19.938613    36.253273    31.929919    12.612127     22.30075    14.235163 
   44600    3.2197944    46620.296            0     46632.83    12.682247     22.44169    14.412991    19.627152    36.400697    32.025407    12.612127     22.30075    14.235163 
   44800    2.1365443    46789.338            0    46797.655    12.679668    22.442975    14.413758    19.369088    36.529194    32.102157    12.612127     22.30075    14.235163 
   45000    3.0223255    46961.488            0    46973.254    12.677717    22.444152    14.414539    19.173899     36.64698    32.180214    12.612127     22.30075    14.235163 
   45200    1.7057225     47131.52            0     47138.16     12.67782    22.444785     14.41573    19.184208    36.710282    32.299372    12.612127     22.30075    14.235163 
   45400    2.6382508    47297.804            0    47308.074    12.679965    22.444083    14.416674    19.398839    36.640113    32.393799    12.612127     22.30075    14.235163 
   45600    1.6657095     47465.74            0    47472.224    12.683023     22.44302    14.417765    19.704764     36.53375    32.503026    12.612127     22.30075    14.235163 
   45800    1.7790211    47635.427            0    47642.353    12.685415    22.442379     14.41854    19.943998    36.469634    32.580554    12.612127     22.30075    14.235163 
   46000    2.8871414    47805.577            0    47816.816    12.688626     22.44229    14.419607     20.26524    36.460737    32.687249    12.612127     22.30075    14.235163 
   46200    1.4459183    47974.006            0    47979.635    12.691624    22.442895     14.42072    20.565168     36.52119    32.798662    12.612127     22.30075    14.235163 
   46400    2.1988551    48143.476            0    48152.036    12.693303    22.443358    14.421803    20.733169    36.567554    32.906992    12.612127     22.30075    14.235163 
   46600    2.3711535    48312.563            0    48321.794    12.694332    22.443861    14.423325    20.836145    36.617839    33.059259    12.612127     22.30075    14.235163 
   46800    2.7810062    48482.748            0    48493.574    12.694176     22.44408    14.424827    20.820542    36.639781    33.209507    12.612127     22.30075    14.235163 
   47000    1.8971251    48651.651            0    48659.037    12.692526    22.443793    14.426379    20.655438    36.611064    33.364769    12.612127     22.30075    14.235163 
   47200    2.7082852    48819.268            0    48829.811    12.690942    22.442585    14.427397    20.496976    36.490211    33.466581    12.612127     22.30075    14.235163 
   47400    1.5639166    48988.426            0    48994.514    12.689255      22.4411    14.428242    20.328198    36.341639    33.551093    12.612127     22.30075    14.235163 
   47600    2.4308472    49157.456            0    49166.919    12.687948    22.439929    14.428742    20.197444    36.224471    33.601133    12.612127     22.30075    14.235163 
   47800    2.1708587    49328.582            0    49337.033    12.686699    22.438334    14.429392    20.072525    36.064947    33.666157    12.612127     22.30075    14.235163 
   48000    2.8069431    49495.418            0    49506.346    12.686668     22.43747    14.430102    20.069361     35.97847    33.737185    12.612127     22.30075    14.235163 
   48200    1.6342385    49664.319            0    49670.681    12.686949    22.437308    14.430628    20.097487    35.962333    33.789792    12.612127     22.30075    14.235163 
   48400    3.1346652     49833.94            0    49846.143     12.68729    22.437636    14.431235    20.131645    35.995059    33.850527    12.612127     22.30075    14.235163 
   48600    2.1522582    50005.135            0    50013.514     12.68719    22.438655    14.431979    20.121594    36.097086    33.924989    12.612127     22.30075    14.235163 
   48800     2.192317    50172.217            0    50180.751    12.685929    22.440884    14.432986    19.995411    36.320048    34.025772    12.612127     22.30075    14.235163 
   49000     2.104989    50341.255            0    50349.449    12.685324    22.442735    14.433825    19.934894     36.50517    34.109626    12.612127     22.30075    14.235163 
   49200    2.5635703    50510.288            0    50520.268    12.685361    22.444855    14.434963    19.938647    36.717323    34.223565    12.612127     22.30075    14.235163 
   49400    2.2241427    50679.627            0    50688.286    12.685441    22.446373    14.435871    19.946666    36.869213    34.314338    12.612127     22.30075    14.235163 
   49600    2.4288655    50849.359            0    50858.814    12.685057    22.447856    14.436975    19.908239    37.017546    34.424852    12.612127     22.30075    14.235163 
   49800    2.6245301    51018.156            0    51028.373     12.68466    22.447793    14.438028    19.868466    37.011223    34.530148    12.612127     22.30075    14.235163 
   50000    1.5776012    51186.959            0      51193.1    12.684155    22.446521    14.439452     19.81797       36.884    34.672621    12.612127     22.30075    14.235163 
   50200     2.141023    51356.321            0    51364.656    12.683763    22.445506     14.44056    19.778796    36.782471    34.783486    12.612127     22.30075    14.235163 
   50400    2.4610904    51527.236            0    51536.817    12.683719    22.444059    14.441962    19.774404    36.637655    34.923665    12.612127     22.30075    14.235163 
   50600     1.749495    51693.898            0    51700.709    12.685186    22.442346    14.443236    19.921092    36.466304    35.051157    12.612127     22.30075    14.235163 
   50800    2.3968021    51863.696            0    51873.027    12.686402    22.440914    14.444184    20.042741    36.322996    35.145983    12.612127     22.30075    14.235163 
   51000    2.4390452    52032.713            0    52042.208    12.687294    22.439089    14.445222    20.131976     36.14048    35.249834    12.612127     22.30075    14.235163 
   51200     1.915258    52201.416            0    52208.872    12.687654    22.437679    14.445931    20.168032    35.999406    35.320787    12.612127     22.30075    14.235163 
   51400    3.2095013    52370.967            0    52383.461    12.688061     22.43626    14.446675    20.208755      35.8574    35.395214    12.612127     22.30075    14.235163 
   51600    1.7915556     52540.06            0    52547.034     12.68863    22.435601    14.447247     20.26569    35.791472    35.452443    12.612127     22.30075    14.235163 
   51800    4.1591191     52709.13            0    52725.321    12.689307    22.435815    14.447796    20.333373    35.812973    35.507338    12.612127     22.30075    14.235163 
   52000    2.2959971    52877.984            0    52886.923    12.689946    22.436591    14.448202    20.397295    35.890597    35.547978    12.612127     22.30075    14.235163 
   52200     2.504918    53046.929            0    53056.681    12.690468    22.437689      14.4485     20.44956    36.000406    35.577737    12.612127     22.30075    14.235163 
   52400    2.2214245    53216.514            0    53225.161    12.691008    22.438897    14.448821    20.503539    36.121224    35.609857    12.612127     22.30075    14.235163 
   52600    2.4415774    53385.904            0    53395.409    12.691641    22.440319    14.449292    20.566854    36.263557    35.656978    12.612127     22.30075    14.235163 
   52800    2.1724969    53558.311            0    53566.769    12.692105     22.44215    14.450186    20.613306    36.446646    35.746417    12.612127     22.30075    14.235163 
   53000    1.8897397    53726.809            0    53734.166    12.691514    22.442841    14.451211    20.554212    36.515865    35.848975    12.612127     22.30075    14.235163 
   53200    2.7118357    53893.413            0     53903.97    12.689854    22.442986    14.452828     20.38816    36.530336    36.010736    12.612127     22.30075    14.235163 
   53400    2.0543963    54062.234            0    54070.231    12.688629    22.443007    14.454107    20.265591    36.532423    36.138716    12.612127     22.30075    14.235163 
   53600    3.6200364    54234.038            0     54248.13    12.687584     22.44232    14.455763    20.160992    36.463665     36.30444    12.612127     22.30075    14.235163 
   53800    1.8861989    54401.691            0    54409.034    12.687361    22.440951    14.457487    20.138682    36.326738    36.476904    12.612127     22.30075    14.235163 
   54000    2.7450918    54570.472            0    54581.159    12.687418    22.439738    14.459122    20.144393    36.205437    36.640444    12.612127     22.30075    14.235163 
   54200    1.8420733    54740.608            0    54747.779    12.687235    22.438897    14.460839    20.126146     36.12121    36.812205    12.612127     22.30075    14.235163 
   54400    3.2868642    54907.727            0    54920.523    12.687017    22.438524    14.462581    20.104324    36.083968    36.986453    12.612127     22.30075    14.235163 
   54600    1.4445145    55078.184            0    55083.808    12.686658    22.438073     14.46437    20.068378    36.038869    37.165405    12.612127     22.30075    14.235163 
   54800    2.4601433    55247.613            0    55257.191    12.685715    22.437399    14.465917    19.974076    35.971353    37.320251    12.612127     22.30075    14.235163 
   55000    2.6718477    55415.616            0    55426.018    12.684825    22.437627    14.467395    19.885056    35.994173    37.468113    12.612127     22.30075    14.235163 
   55200    1.3345644    55584.089            0    55589.285    12.684609    22.438302    14.468362    19.863358    36.061686    37.564843    12.612127     22.30075    14.235163 
   55400     3.291716    55753.148            0    55765.962    12.684654    22.438914    14.469343    19.867855    36.122963    37.662991    12.612127     22.30075    14.235163 
   55600    1.8204099    55922.386            0    55929.473    12.684739    22.439586    14.470297    19.876365    36.190227     37.75838    12.612127     22.30075    14.235163 
   55800    3.6605029    56092.662            0    56106.912    12.684912    22.440539     14.47122    19.893695    36.285554    37.850712    12.612127     22.30075    14.235163 
   56000    1.4363831     56263.05            0    56268.642    12.685543    22.440838    14.471875    19.956883    36.315393     37.91629    12.612127     22.30075    14.235163 
   56200    2.5758961    56432.557            0    56442.585    12.686428    22.439775    14.472149    20.045349    36.209137    37.943717    12.612127     22.30075    14.235163 
   56400    2.1253478    56599.598            0    56607.872     12.68755    22.438538    14.472307     20.15763    36.085318    37.959475    12.612127     22.30075    14.235163 
   56600    2.0173006    56768.206            0    56776.059    12.688446    22.437804    14.472373    20.247239    36.011918    37.966064    12.612127     22.30075    14.235163 
   56800    2.0706073    56942.298            0    56950.358    12.689001    22.437162    14.472384    20.302798    35.947648    37.967219    12.612127     22.30075    14.235163 
   57000    2.8196835    57106.557            0    57117.534      12.6879    22.437177    14.472068    20.192682    35.949228    37.935571    12.612127     22.30075    14.235163 
   57200    2.2015163    57275.449            0    57284.019    12.686598    22.437465    14.471731    20.062347    35.978036    37.901855    12.612127     22.30075    14.235163 
   57400     3.174709    57444.842            0    57457.201    12.685213     22.43792    14.471356    19.923849     36.02349    37.864317    12.612127     22.30075    14.235163 
   57600    1.6773062    57617.323            0    57623.853    12.684146    22.438739     14.47088    19.817075     36.10542    37.816757    12.612127     22.30075    14.235163 
   57800    3.7045522    57784.365            0    57798.787    12.683438    22.440043    14.469926    19.746231    36.235887    37.721257    12.612127     22.30075    14.235163 
   58000    2.0473361    57953.041            0    57961.011    12.683223    22.441316    14.469007    19.724732    36.363298    37.629306    12.612127     22.30075    14.235163 
   58200    2.4998169    58121.185            0    58130.916    12.684233    22.442479    14.468237    19.825802     36.47959    37.552348    12.612127     22.30075    14.235163 
   58400      1.69602    58290.972            0    58297.575    12.685189    22.443683    14.467523    19.921386    36.600095    37.480877    12.612127     22.30075    14.235163 
   58600    3.0738044    58461.717            0    58473.684     12.68593    22.444449    14.467046     19.99556    36.676649    37.433125    12.612127     22.30075    14.235163 
   58800    2.0829844    58629.381            0     58637.49    12.686686    22.444596    14.466744    20.071162    36.691374    37.402926    12.612127     22.30075    14.235163 
   59000    2.4956824    58797.915            0     58807.63    12.687149    22.444567    14.466597    20.117475    36.688504    37.388211    12.612127     22.30075    14.235163 
   59200    2.0781692    58973.992            0    58982.082     12.68758    22.444484    14.466507    20.160587    36.680234    37.379238    12.612127     22.30075    14.235163 
   59400    3.0227101    59136.351            0    59148.119    12.687585    22.444845    14.466513    20.161121    36.716296     37.37984    12.612127     22.30075    14.235163 
   59600    2.1214091     59305.45            0    59313.709    12.687188     22.44494     14.46637    20.121441    36.725766    37.365498    12.612127     22.30075    14.235163 
   59800    2.5965301    59474.169            0    59484.277    12.686143    22.444683     14.46621    20.016852    36.700064    37.349555    12.612127     22.30075    14.235163 
   60000    1.0790925    59643.299            0      59647.5    12.685278    22.444453    14.466111    19.930288    36.677053    37.339601    12.612127     22.30075    14.235163 
   60200    2.5843077    59812.503            0    59822.564     12.68435    22.444201    14.466003     19.83753    36.651886     37.32881    12.612127     22.30075    14.235163 
   60400    1.6187279    59986.742            0    59993.043    12.683536     22.44376    14.465711    19.756067    36.607772    37.299576    12.612127     22.30075    14.235163 
   60600    3.0886369    60153.488            0    60165.512    12.684877    22.442951    14.464329    19.890167    36.526846    37.161324    12.612127     22.30075    14.235163 
   60800    2.1409928    60320.751            0    60329.086    12.686173    22.443188    14.462615    20.019906    36.550588    36.989873    12.612127     22.30075    14.235163 
   61000    3.2488141    60489.631            0    60502.279    12.686908     22.44373    14.460689    20.093438    36.604742    36.797176    12.612127     22.30075    14.235163 
   61200    1.8629933    60658.644            0    60665.896    12.687817    22.444806    14.458452    20.184302    36.712373    36.573424    12.612127     22.30075    14.235163 
   61400    2.7675827    60827.367            0    60838.141    12.688922    22.446065    14.456544    20.294846    36.838356    36.382542    12.612127     22.30075    14.235163 
   61600    1.2056367    60998.144            0    61002.837    12.690322    22.447464    14.454368    20.434943    36.978269    36.164787    12.612127     22.30075    14.235163 
   61800    2.3864904    61166.898            0    61176.188    12.690013    22.448235    14.452835    20.404075    37.055415    36.011501    12.612127     22.30075    14.235163 
   62000    2.2201581    61334.839            0    61343.482    12.688439    22.448489    14.451046    20.246585    37.080856    35.832474    12.612127     22.30075    14.235163 
   62200    2.4105554    61503.817            0    61513.201     12.68709    22.448566     14.44963    20.111586    37.088517    35.690802    12.612127     22.30075    14.235163 
   62400    2.5661624    61674.123            0    61684.113    12.685335    22.448628    14.447742    19.936073    37.094774    35.501935    12.612127     22.30075    14.235163 
   62600    2.1121319    61845.367            0     61853.59     12.68419    22.448467    14.446082    19.821524    37.078686    35.335859    12.612127     22.30075    14.235163 
   62800    3.4985822    62015.563            0    62029.183    12.684397     22.44687    14.444077    19.842206    36.918923    35.135344    12.612127     22.30075    14.235163 
   63000    2.2390123    62180.365            0    62189.081    12.685734    22.444459    14.442431    19.975904    36.677675    34.970603    12.612127     22.30075    14.235163 
   63200    2.1709489    62351.939            0    62360.391    12.686908    22.442423    14.441123     20.09341    36.473992    34.839765    12.612127     22.30075    14.235163 
   63400    2.7913166     62521.11            0    62531.976    12.688538    22.439598    14.439308      20.2565    36.191373    34.658211    12.612127     22.30075    14.235163 
   63600    1.0725754     62695.52            0    62699.696    12.689844    22.437725    14.437898    20.387168    36.004049    34.517129    12.612127     22.30075    14.235163 
   63800    2.8311359    62859.577            0    62870.599    12.690438     22.43843    14.436799    20.446536    36.074532    34.407228    12.612127     22.30075    14.235163 
   64000    2.0746707    63027.854            0    63035.931    12.690357     22.43973    14.436065    20.438438    36.204546    34.333772    12.612127     22.30075    14.235163 
   64200    2.4799803    63204.572            0    63214.226    12.690048    22.440626     14.43542    20.407547    36.294247    34.269221    12.612127     22.30075    14.235163 
   64400    2.4679968    63366.733            0    63376.341    12.689378    22.439325    14.435276    20.340531    36.164028    34.254868    12.612127     22.30075    14.235163 
   64600    2.1839877    63534.217            0     63542.72    12.689083    22.439333    14.434902    20.310982    36.164924    34.217431    12.612127     22.30075    14.235163 
   64800    3.5974526    63703.418            0    63717.422    12.688399    22.440133    14.434494    20.242592    36.244887    34.176605    12.612127     22.30075    14.235163 
   65000    1.5953704    63872.518            0    63878.729    12.687442    22.441107    14.434156    20.146775    36.342354    34.142755    12.612127     22.30075    14.235163 
   65200    2.7255669    64042.185            0    64052.796    12.685696    22.442212    14.433895    19.972117    36.452904    34.116625    12.612127     22.30075    14.235163 
   65400    2.0658438    64212.691            0    64220.733    12.684373    22.443249    14.433743    19.839784    36.556676    34.101435    12.612127     22.30075    14.235163 
   65600    1.9394779    64379.662            0    64387.212    12.684767    22.444475    14.434001    19.879189    36.679244    34.127307    12.612127     22.30075    14.235163 
   65800    3.0729973    64550.986            0    64562.949    12.685731    22.446057    14.434434    19.975627    36.837607    34.170623    12.612127     22.30075    14.235163 
   66000    1.7792236    64719.053            0    64725.979    12.686796    22.447732    14.434904    20.082211    37.005157    34.217646    12.612127     22.30075    14.235163 
   66200    2.2223063    64887.993            0    64896.645    12.687599    22.448051    14.435271    20.162478     37.03707    34.254283    12.612127     22.30075    14.235163 
   66400    2.9960576    65058.298            0    65069.962    12.687927    22.447404    14.435522    20.195316    36.972342    34.279403    12.612127     22.30075    14.235163 
   66600    1.4200406    65227.782            0     65233.31    12.687643     22.44647    14.435711     20.16694    36.878837    34.298386    12.612127     22.30075    14.235163 
   66800    3.3490526    65393.981            0    65407.019    12.686222    22.445599    14.436173    20.024735    36.791704     34.34456    12.612127     22.30075    14.235163 
   67000     1.402263    65563.127            0    65568.586     12.68481    22.444875    14.436619    19.883525    36.719324    34.389205    12.612127     22.30075    14.235163 
   67200    2.8775381    65732.267            0    65743.469    12.683436    22.444117    14.437059    19.746093    36.643518    34.433227    12.612127     22.30075    14.235163 
   67400    1.8018969    65902.031            0    65909.046    12.682003    22.443266    14.437509    19.602675    36.558353      34.4782    12.612127     22.30075    14.235163 
   67600    3.0930747    66072.347            0    66084.388      12.6808    22.442265    14.437699    19.482348    36.458171     34.49721    12.612127     22.30075    14.235163 
   67800    2.1188613    66243.775            0    66252.024    12.680052    22.440398    14.438049    19.407524    36.271375    34.532264    12.612127     22.30075    14.235163 
   68000    2.1840298    66411.107            0    66419.609    12.681008     22.43892    14.438635    19.503178     36.12356    34.590888    12.612127     22.30075    14.235163 
   68200    2.6272097    66578.485            0    66588.712    12.683018    22.438749    14.439199    19.704254    36.106443    34.647332    12.612127     22.30075    14.235163 
   68400    1.9806369    66747.759            0     66755.47    12.684555    22.438851    14.439368    19.857988    36.116632     34.66418    12.612127     22.30075    14.235163 
   68600    2.7939475    66916.511            0    66927.387    12.686121    22.438837    14.439197    20.014621    36.115213     34.64714    12.612127     22.30075    14.235163 
   68800    2.0692424    67087.366            0    67095.421    12.687255    22.439006    14.438905    20.128065    36.132144     34.61792    12.612127     22.30075    14.235163 
   69000     3.103701     67259.73            0    67271.813    12.687307    22.439793    14.438155    20.133311    36.210888    34.542892    12.612127     22.30075    14.235163 
   69200    2.0535598    67425.359            0    67433.354    12.686267    22.441293    14.437144    20.029258    36.360923    34.441671    12.612127     22.30075    14.235163 
   69400    2.3758741    67593.043            0    67602.292    12.684901    22.442966    14.436167    19.892581     36.52833    34.343928    12.612127     22.30075    14.235163 
   69600     2.249642    67762.289            0    67771.046    12.683541    22.444093    14.435326     19.75658    36.641067    34.259864    12.612127     22.30075    14.235163 
   69800    2.4276189    67932.242            0    67941.692     12.68194    22.444763    14.434481     19.59639    36.708144    34.175323    12.612127     22.30075    14.235163 
   70000     2.031436    68101.438            0    68109.346    12.681131    22.445738     14.43355    19.515406    36.805634     34.08212    12.612127     22.30075    14.235163 
   70200    2.3354982    68272.213            0    68281.305    12.681027    22.447374    14.432109    19.505074    36.969323    33.938001    12.612127     22.30075    14.235163 
   70400    2.2654322     68438.57            0    68447.389    12.681647    22.447255    14.431051    19.567076    36.957404    33.832202    12.612127     22.30075    14.235163 
   70600    1.2429681    68607.838            0    68612.677    12.682326    22.446491    14.430402    19.634994    36.881001    33.767268    12.612127     22.30075    14.235163 
   70800    2.7505204    68777.849            0    68788.557    12.683093    22.444829    14.429858    19.711737    36.714741    33.712829    12.612127     22.30075    14.235163 
   71000    2.1310096    68946.512            0    68954.808    12.683985    22.442222    14.429387    19.800964    36.453906    33.665637    12.612127     22.30075    14.235163 
   71200    1.7157654    69115.194            0    69121.873     12.68488    22.439729    14.429008    19.890475    36.204523    33.627737    12.612127     22.30075    14.235163 
   71400    2.8551395    69285.082            0    69296.197    12.685893    22.436528    14.428478    19.991902    35.884268    33.574712    12.612127     22.30075    14.235163 
   71600    2.0501744    69456.112            0    69464.093    12.686936    22.434061    14.428025     20.09622    35.637479    33.529382    12.612127     22.30075    14.235163 
   71800    3.1715682    69623.771            0    69636.117    12.687881    22.432392    14.427083    20.190775    35.470449    33.435163    12.612127     22.30075    14.235163 
   72000    1.9658186     69792.07            0    69799.723    12.688371    22.431518    14.426168    20.239758    35.383038    33.343654    12.612127     22.30075    14.235163 
   72200    3.3398937    69962.876            0    69975.878    12.688544    22.431597    14.425342     20.25706     35.39097    33.261052    12.612127     22.30075    14.235163 
   72400    1.7158415    70130.881            0    70137.561    12.688148    22.433103    14.424857    20.217405    35.541604    33.212522    12.612127     22.30075    14.235163 
   72600     2.644112    70299.151            0    70309.444    12.687547    22.435354    14.424748    20.157332    35.766815    33.201615    12.612127     22.30075    14.235163 
   72800    2.1886528    70469.052            0    70477.573    12.686959    22.438296    14.424789      20.0985    36.061106    33.205698    12.612127     22.30075    14.235163 
   73000    1.7623325    70637.973            0    70644.834     12.68683    22.441083    14.424963    20.085561    36.339944    33.223048    12.612127     22.30075    14.235163 
   73200    2.8221443    70808.779            0    70819.765    12.686733    22.444576    14.425118    20.075879    36.689405    33.238653    12.612127     22.30075    14.235163 
   73400    1.6905122     70978.72            0    70985.301    12.686142    22.447161     14.42524    20.016802    36.948018    33.250805    12.612127     22.30075    14.235163 
   73600    3.5024835     71145.64            0    71159.275    12.684833     22.44802    14.425706    19.885809    37.033896    33.297426    12.612127     22.30075    14.235163 
   73800    1.9265473    71314.925            0    71322.424    12.684287    22.447876    14.425963    19.831185    37.019567    33.323178    12.612127     22.30075    14.235163 
   74000    3.5857986    71483.376            0    71497.335    12.684785    22.446994    14.425884    19.881031    36.931305    33.315249    12.612127     22.30075    14.235163 
   74200    1.3273588    71654.175            0    71659.343    12.685076    22.446195    14.425879    19.910148    36.851405     33.31469    12.612127     22.30075    14.235163 
   74400     2.829458    71822.417            0    71833.432    12.684107    22.445931    14.426403    19.813142    36.824968      33.3672    12.612127     22.30075    14.235163 
   74600    1.6347448    71991.714            0    71998.078    12.683522    22.445304    14.427189    19.754687    36.762255     33.44582    12.612127     22.30075    14.235163 
   74800    2.3831395    72161.549            0    72170.826    12.683731    22.444317    14.428105    19.775608    36.663506    33.537444    12.612127     22.30075    14.235163 
   75000      2.48479    72329.214            0    72338.887     12.68418    22.442869    14.429452    19.820514    36.518672    33.672189    12.612127     22.30075    14.235163 
   75200    2.0283712    72498.161            0    72506.057    12.684467    22.441714    14.430483    19.849181     36.40304    33.775309    12.612127     22.30075    14.235163 
   75400    3.8558352    72670.282            0    72685.293    12.683847    22.440168    14.431609    19.787198    36.248391    33.887973    12.612127     22.30075    14.235163 
   75600    2.3109412    72837.458            0    72846.454    12.682942    22.439031    14.432625    19.696616    36.134679    33.989628    12.612127     22.30075    14.235163 
   75800    2.0523858    73005.186            0    73013.175    12.683268    22.438444    14.433346    19.729224    36.075925    34.061701    12.612127     22.30075    14.235163 
   76000    3.2517889    73174.456            0    73187.115    12.683642    22.437792    14.434224    19.766699    36.010727    34.149579    12.612127     22.30075    14.235163 
   76200    1.6449237    73343.648            0    73350.052    12.683769    22.437443    14.434996    19.779399    35.975752    34.226836    12.612127     22.30075    14.235163 
   76400    2.8083137    73512.627            0    73523.559    12.683832    22.437471    14.435801    19.785623    35.978647    34.307354    12.612127     22.30075    14.235163 
   76600    2.4536107    73685.399            0    73694.951    12.683287     22.43733    14.436448    19.731169    35.964454    34.372051    12.612127     22.30075    14.235163 
   76800     2.302859    73850.945            0     73859.91    12.680731     22.43619    14.436809    19.475428    35.850478    34.408158    12.612127     22.30075    14.235163 
   77000    2.3483129    74020.226            0    74029.367    12.678749    22.435436    14.437066    19.277148    35.775025    34.433868    12.612127     22.30075    14.235163 
   77200     2.533014    74190.479            0     74200.34    12.676066    22.435026    14.437525    19.008752    35.733984    34.479864    12.612127     22.30075    14.235163 
   77400     1.721915    74359.293            0    74365.997    12.674229    22.435208    14.437989     18.82499    35.752225     34.52628    12.612127     22.30075    14.235163 
   77600    1.8484881    74533.521            0    74540.717     12.67326    22.435823    14.438536     18.72799    35.813715    34.580988    12.612127     22.30075    14.235163 
   77800    2.8725468     74697.28            0    74708.463    12.675016    22.437801    14.439032    18.903725    36.011614    34.630557    12.612127     22.30075    14.235163 
   78000    2.1072594    74866.489            0    74874.692    12.677118    22.439894    14.439349    19.114024    36.221004    34.662313    12.612127     22.30075    14.235163 
   78200    3.4345021    75036.722            0    75050.093    12.678919    22.442092    14.439839    19.294176    36.440857    34.711281    12.612127     22.30075    14.235163 
   78400     1.397247    75206.102            0    75211.542    12.679894    22.443825    14.440469    19.391738     36.61427    34.774345    12.612127     22.30075    14.235163 
   78600    2.7899732    75375.971            0    75386.832    12.680434    22.444129    14.441344    19.445698    36.644696    34.861892    12.612127     22.30075    14.235163 
   78800    3.2065761    75546.295            0    75558.778    12.680627    22.443879    14.442573    19.465028    36.619622    34.984855    12.612127     22.30075    14.235163 
   79000    1.6705797    75713.211            0    75719.715    12.681065    22.443334    14.443697    19.508852    36.565186    35.097326    12.612127     22.30075    14.235163 
   79200    3.0744741    75881.834            0    75893.803    12.681996    22.442517    14.444619    19.602022    36.483406    35.189565    12.612127     22.30075    14.235163 
   79400    1.4218173    76051.562            0    76057.097    12.682587    22.441186    14.445753    19.661161    36.350291    35.302982    12.612127     22.30075    14.235163 
   79600    2.2636185    76220.316            0    76229.128    12.682042    22.439941    14.446826    19.606604    36.225697    35.410315    12.612127     22.30075    14.235163 
   79800    2.4608401    76388.631            0    76398.211    12.680826    22.439467    14.447977    19.484944    36.178291     35.52545    12.612127     22.30075    14.235163 
   80000    2.4440228     76558.25            0    76567.764    12.680268    22.439778    14.448993    19.429164    36.209411    35.627107    12.612127     22.30075    14.235163 
   80200    2.2053736    76726.208            0    76734.793    12.680578    22.440635    14.450258    19.460093    36.295088    35.753671    12.612127     22.30075    14.235163 
   80400    2.3862188     76895.37            0     76904.66    12.680856     22.44133    14.451261    19.487969    36.364702    35.854002    12.612127     22.30075    14.235163 
   80600    2.4371778    77064.983            0    77074.471    12.681187    22.442259    14.452459      19.5211    36.457556     35.97383    12.612127     22.30075    14.235163 
   80800    1.7222404    77233.721            0    77240.426    12.681411    22.443186    14.453478    19.543441    36.550358     36.07584    12.612127     22.30075    14.235163 
   81000    2.6056259    77403.461            0    77413.604    12.681581    22.444477    14.454815    19.560499    36.679488    36.209579    12.612127     22.30075    14.235163 
   81200     2.108658    77574.263            0    77582.472     12.68189     22.44601    14.456009    19.591423     36.83286    36.328987    12.612127     22.30075    14.235163 
   81400    3.0283003    77741.314            0    77753.103    12.681904    22.446766    14.457981    19.592817    36.908448    36.526267    12.612127     22.30075    14.235163 
   81600    2.1182015    77910.179            0    77918.425    12.681658    22.446908    14.459694    19.568213    36.922681     36.69762    12.612127     22.30075    14.235163 
   81800    3.3797816    78079.627            0    78092.784    12.681301    22.446978    14.461503    19.532486    36.929714     36.87868    12.612127     22.30075    14.235163 
   82000    1.1879991    78251.113            0    78255.738    12.680872    22.446493     14.46334    19.489505    36.881188    37.062425    12.612127     22.30075    14.235163 
   82200    2.9432825    78418.117            0    78429.575    12.680653    22.444254    14.465767    19.467592    36.657196    37.305248    12.612127     22.30075    14.235163 
   82400    1.9130605    78588.082            0    78595.529    12.680024    22.441608    14.468236    19.404719    36.392428    37.552192    12.612127     22.30075    14.235163 
   82600    3.9516483      78756.8            0    78772.184    12.678217    22.438521     14.47085     19.22394    36.083639    37.813732    12.612127     22.30075    14.235163 
   82800    2.0292516    78925.953            0    78933.853    12.676203    22.435859    14.473143    19.022482    35.817286    38.043169    12.612127     22.30075    14.235163 
   83000    3.2939183    79094.648            0    79107.471    12.674868    22.433631    14.475676    18.888842    35.594394    38.296543    12.612127     22.30075    14.235163 
   83200    1.3518603    79264.285            0    79269.548    12.674009    22.432199    14.478122    18.802949    35.451202    38.541258    12.612127     22.30075    14.235163 
   83400    2.8471372    79433.066            0     79444.15    12.673108     22.43154    14.480613    18.712772    35.385297    38.790477    12.612127     22.30075    14.235163 
   83600    1.9982274    79601.549            0    79609.328     12.67212    22.431153    14.483312    18.613965    35.346518    39.060421    12.612127     22.30075    14.235163 
   83800     2.760838    79771.896            0    79782.643    12.671348    22.430872      14.4857    18.536702    35.318437    39.299313    12.612127     22.30075    14.235163 
   84000    2.3571196    79940.867            0    79950.043    12.671373    22.431496    14.488325    18.539202    35.380874    39.561933    12.612127     22.30075    14.235163 
[...]
  529400    425.90001     59210651            0     59212309    12.683316    22.437759    14.766025    19.734034    36.007398    67.343615    12.612127     22.30075    14.235163 
  529600    281.67529     59211387            0     59212484    12.683307    22.437768    14.766128    19.733119    36.008287    67.353904    12.612127     22.30075    14.235163 
  529800    228.60096     59212096            0     59212986    12.683352    22.437752    14.766214    19.737602    36.006666    67.362553    12.612127     22.30075    14.235163 
  530000    258.13417     59212123            0     59213128    12.683286    22.437782    14.766173    19.731071     36.00974    67.358401    12.612127     22.30075    14.235163 
  530200     159.6455     59211156            0     59211777    12.683279    22.437761    14.766255    19.730365    36.007562     67.36668    12.612127     22.30075    14.235163 
  530400    204.57348     59210854            0     59211651    12.683311    22.437763    14.766028    19.733509    36.007855    67.343951    12.612127     22.30075    14.235163 
  530600    197.58385     59211534            0     59212303    12.683315    22.437754    14.766512    19.733933    36.006885    67.392315    12.612127     22.30075    14.235163 
  530800    143.33443     59211299            0     59211857    12.683339    22.437786    14.766305    19.736304    36.010141    67.371659    12.612127     22.30075    14.235163 
  531000    233.42056     59210598            0     59211506    12.683343    22.437734    14.766204    19.736726    36.004954    67.361582    12.612127     22.30075    14.235163 
  531200    437.57796     59211308            0     59213012    12.683282     22.43775    14.765801    19.730652    36.006549    67.321241    12.612127     22.30075    14.235163 
  531400    246.57422     59211419            0     59212379    12.683338     22.43777    14.765993    19.736217    36.008537    67.340417    12.612127     22.30075    14.235163 
  531600    167.96715     59212015            0     59212669    12.683319    22.437764    14.765891    19.734382    36.007946    67.330188    12.612127     22.30075    14.235163 
  531800    178.23929     59211183            0     59211877    12.683328    22.437786    14.766362    19.735228      36.0101    67.377304    12.612127     22.30075    14.235163 
  532000    206.59128     59211062            0     59211866    12.683336    22.437768    14.766044    19.736007    36.008306    67.345551    12.612127     22.30075    14.235163 
  532200    235.38754     59210194            0     59211110    12.683315    22.437754    14.766103    19.733975    36.006878     67.35139    12.612127     22.30075    14.235163 
  532400    313.71549     59211774            0     59212996    12.683311    22.437746    14.766494    19.733548    36.006134      67.3905    12.612127     22.30075    14.235163 
  532600    211.17711     59212282            0     59213104    12.683315    22.437754       14.766    19.733965    36.006879    67.341097    12.612127     22.30075    14.235163 
  532800    329.99876     59211377            0     59212661     12.68331    22.437765    14.766394    19.733406    36.007972    67.380591    12.612127     22.30075    14.235163 
  533000    183.20283     59210956            0     59211669    12.683329    22.437728    14.765987    19.735309    36.004277    67.339813    12.612127     22.30075    14.235163 
  533200    300.47939     59211287            0     59212457    12.683286    22.437778    14.766015    19.731007    36.009353    67.342626    12.612127     22.30075    14.235163 
  533400    224.95226     59212825            0     59213701    12.683323    22.437752    14.766315    19.734783    36.006745    67.372656    12.612127     22.30075    14.235163 
  533600     289.3983     59211184            0     59212311    12.683318    22.437748    14.766443    19.734248    36.006338    67.385429    12.612127     22.30075    14.235163 
  533800    272.21715     59213959            0     59215019    12.683317    22.437753    14.766591     19.73415    36.006838     67.40024    12.612127     22.30075    14.235163 
  534000    190.24095     59213000            0     59213741    12.683323    22.437752    14.766002    19.734788    36.006753    67.341341    12.612127     22.30075    14.235163 
  534200    185.67341     59210776            0     59211499    12.683305    22.437743    14.766214    19.732922    36.005781    67.362563    12.612127     22.30075    14.235163 
  534400    214.38075     59211631            0     59212466    12.683301    22.437789    14.766171    19.732531    36.010367    67.358245    12.612127     22.30075    14.235163 
  534600    274.06684     59212790            0     59213857    12.683321    22.437765    14.766069    19.734594     36.00798    67.348072    12.612127     22.30075    14.235163 
  534800    199.28357     59210959            0     59211735    12.683314    22.437754      14.7662    19.733845    36.006886    67.361163    12.612127     22.30075    14.235163 
  535000    113.05054     59210865            0     59211305    12.683371    22.437752    14.766372    19.739538    36.006719    67.378313    12.612127     22.30075    14.235163 
  535200     318.9179     59210705            0     59211947    12.683313     22.43775    14.766383    19.733707    36.006476    67.379402    12.612127     22.30075    14.235163 
  535400     279.1273     59211541            0     59212627     12.68331    22.437746     14.76618     19.73344    36.006061    67.359141    12.612127     22.30075    14.235163 
  535600    249.05307     59212145            0     59213115    12.683304    22.437754    14.766105    19.732869    36.006931    67.351625    12.612127     22.30075    14.235163 
  535800    318.30557     59212452            0     59213691    12.683313    22.437758    14.765771    19.733705    36.007312    67.318267    12.612127     22.30075    14.235163 
  536000    279.09812     59212043            0     59213130    12.683311    22.437737     14.76641    19.733507    36.005228    67.382161    12.612127     22.30075    14.235163 
  536200    322.90843     59213725            0     59214982    12.683315    22.437754    14.765824     19.73398    36.006879    67.323505    12.612127     22.30075    14.235163 
  536400    223.58862     59212161            0     59213032    12.683296    22.437779    14.766446    19.732032    36.009406    67.385752    12.612127     22.30075    14.235163 
  536600    220.95539     59210918            0     59211778    12.683321    22.437775    14.766175    19.734594    36.008993    67.358658    12.612127     22.30075    14.235163 
  536800    267.15482     59212054            0     59213094    12.683312     22.43776    14.766498    19.733695    36.007545    67.390902    12.612127     22.30075    14.235163 
  537000     313.6083     59211493            0     59212713    12.683316    22.437753    14.766265    19.734048    36.006793    67.367639    12.612127     22.30075    14.235163 
  537200    224.15295     59210810            0     59211682    12.683314    22.437745    14.766026    19.733807    36.005969    67.343723    12.612127     22.30075    14.235163 
  537400    387.08824     59210453            0     59211960    12.683311    22.437755    14.766166     19.73351    36.007016    67.357786    12.612127     22.30075    14.235163 
  537600    120.60734     59213052            0     59213521    12.683315    22.437754    14.766052    19.733978    36.006879    67.346304    12.612127     22.30075    14.235163 
  537800    172.42243     59211047            0     59211718    12.683313    22.437754    14.766291    19.733731     36.00694    67.370223    12.612127     22.30075    14.235163 
  538000    324.46759     59211558            0     59212821    12.683325    22.437764    14.766168    19.734984    36.007892    67.357948    12.612127     22.30075    14.235163 
  538200    180.50784     59211942            0     59212645    12.683316    22.437754    14.766489    19.734009    36.006927    67.390055    12.612127     22.30075    14.235163 
  538400    178.41922     59211071            0     59211765    12.683317    22.437751    14.766165    19.734099    36.006643     67.35764    12.612127     22.30075    14.235163 
  538600      373.088     59210908            0     59212360    12.683314    22.437752    14.765995    19.733848    36.006662    67.340651    12.612127     22.30075    14.235163 
  538800    373.94387     59211457            0     59212913    12.683319    22.437751    14.766383    19.734298     36.00665     67.37942    12.612127     22.30075    14.235163 
  539000    264.33897     59211544            0     59212573    12.683393    22.437752    14.766427    19.741761    36.006686    67.383833    12.612127     22.30075    14.235163 
  539200    316.20168     59211720            0     59212951    12.683322    22.437753    14.766173    19.734659    36.006777    67.358474    12.612127     22.30075    14.235163 
  539400     249.6924     59211808            0     59212780    12.683307    22.437706     14.76631    19.733194    36.002061    67.372144    12.612127     22.30075    14.235163 
  539600    203.47529     59212669            0     59213461    12.683351    22.437784    14.766557     19.73754    36.009924    67.396866    12.612127     22.30075    14.235163 
  539800    269.66388     59212209            0     59213258    12.683312    22.437759    14.766111    19.733648    36.007447    67.352188    12.612127     22.30075    14.235163 
  540000    242.05386     59212387            0     59213329    12.683306    22.437746    14.766673    19.733009    36.006144    67.408457    12.612127     22.30075    14.235163 
  540200    161.61678     59212496            0     59213125    12.683304    22.437692    14.766065    19.732814    36.000751    67.347598    12.612127     22.30075    14.235163 
  540400    239.05522     59210964            0     59211895    12.683343    22.437759    14.766063    19.736795    36.007394    67.347441    12.612127     22.30075    14.235163 
  540600    315.06718     59210873            0     59212100    12.683332    22.437786    14.765982     19.73563    36.010097    67.339331    12.612127     22.30075    14.235163 
  540800    315.06253     59212021            0     59213247    12.683342    22.437707    14.766467    19.736694    36.002185    67.387817    12.612127     22.30075    14.235163 
  541000    245.16914     59211969            0     59212923    12.683303    22.437764    14.766163     19.73272    36.007911    67.357392    12.612127     22.30075    14.235163 
  541200    310.59797     59212585            0     59213794    12.683338    22.437737    14.766319    19.736208    36.005163     67.37302    12.612127     22.30075    14.235163 
  541400    274.37488     59211131            0     59212199     12.68331    22.437765    14.766053     19.73345     36.00798     67.34644    12.612127     22.30075    14.235163 
  541600    195.95658     59212153            0     59212916    12.683316    22.437754    14.766018    19.733998    36.006875     67.34298    12.612127     22.30075    14.235163 
  541800    554.27723     59212075            0     59214232    12.683293    22.437754    14.766098    19.731722     36.00695    67.350963    12.612127     22.30075    14.235163 
  542000    301.61455     59210610            0     59211784    12.683333    22.437755    14.766155    19.735712    36.006978    67.356612    12.612127     22.30075    14.235163 
  542200    232.91023     59211507            0     59212414    12.683317    22.437743    14.766029     19.73411    36.005806    67.344051    12.612127     22.30075    14.235163 
  542400    394.17602     59211262            0     59212797    12.683301    22.437747    14.766149    19.732531    36.006177     67.35604    12.612127     22.30075    14.235163 
  542600    223.70309     59210933            0     59211804    12.683302    22.437754    14.766427    19.732694     36.00695    67.383853    12.612127     22.30075    14.235163 
  542800    398.37463     59212319            0     59213870    12.683311    22.437766    14.766127    19.733523    36.008078    67.353796    12.612127     22.30075    14.235163 
  543000    229.21022     59212138            0     59213030    12.683305    22.437717    14.766035    19.732951     36.00317    67.344656    12.612127     22.30075    14.235163 
  543200    245.00864     59211844            0     59212798    12.683315    22.437754    14.766244    19.733978    36.006879    67.365505    12.612127     22.30075    14.235163 
  543400    258.57525     59211829            0     59212835    12.683315    22.437754    14.766594    19.733975    36.006878    67.400515    12.612127     22.30075    14.235163 
  543600    241.00285     59212508            0     59213446    12.683315    22.437736    14.766703     19.73391    36.005105    67.411502    12.612127     22.30075    14.235163 
  543800    258.91086     59212213            0     59213221    12.683301    22.437738    14.766502    19.732568    36.005299    67.391321    12.612127     22.30075    14.235163 
  544000    272.14483     59210722            0     59211781    12.683395    22.437732    14.766356    19.741972    36.004746    67.376732    12.612127     22.30075    14.235163 
  544200    179.36762     59210436            0     59211135    12.683302    22.437777    14.766304    19.732622    36.009185    67.371501    12.612127     22.30075    14.235163 
  544400    388.49455     59210551            0     59212064    12.683321    22.437763    14.766382    19.734592    36.007765    67.379307    12.612127     22.30075    14.235163 
  544600    249.80444     59211372            0     59212344    12.683317    22.437751    14.766223    19.734126    36.006581    67.363399    12.612127     22.30075    14.235163 
  544800    119.71483     59211218            0     59211684    12.683302    22.437708    14.766333    19.732617     36.00233    67.374443    12.612127     22.30075    14.235163 
  545000    415.20053     59211573            0     59213190    12.683298    22.437754    14.766229    19.732279    36.006875    67.364008    12.612127     22.30075    14.235163 
  545200    160.24769     59210864            0     59211487    12.683293    22.437755    14.766212    19.731772    36.007044    67.362387    12.612127     22.30075    14.235163 
  545400    274.18918     59212038            0     59213105    12.683318    22.437777    14.766221    19.734253    36.009205      67.3632    12.612127     22.30075    14.235163 
  545600    229.54592     59210762            0     59211655    12.683319    22.437759     14.76611    19.734302     36.00737    67.352087    12.612127     22.30075    14.235163 
  545800    246.39803     59210548            0     59211507    12.683355    22.437805    14.766054    19.737927     36.01203    67.346541    12.612127     22.30075    14.235163 
  546000    278.68007     59211417            0     59212502     12.68331    22.437743    14.766121     19.73341    36.005827    67.353227    12.612127     22.30075    14.235163 
  546200     280.8225     59211652            0     59212745    12.683307    22.437741    14.765955    19.733119    36.005565    67.336659    12.612127     22.30075    14.235163 
  546400    236.00817     59211998            0     59212916    12.683347    22.437752    14.766483    19.737194    36.006705    67.389457    12.612127     22.30075    14.235163 
  546600    279.22937     59210671            0     59211758    12.683302    22.437787    14.766252    19.732693    36.010202    67.366328    12.612127     22.30075    14.235163 
  546800    441.96312     59212909            0     59214630     12.68332    22.437767    14.766173    19.734407    36.008166    67.358459    12.612127     22.30075    14.235163 
  547000    292.36754     59210672            0     59211810    12.683301    22.437782    14.766039    19.732575    36.009705    67.345078    12.612127     22.30075    14.235163 
  547200    424.09705     59212662            0     59214313    12.683341    22.437744    14.766438    19.736588    36.005887    67.384951    12.612127     22.30075    14.235163 
  547400    351.66616     59212609            0     59213978    12.683315    22.437754     14.76602    19.733979    36.006879    67.343118    12.612127     22.30075    14.235163 
  547600    200.89937     59212283            0     59213065    12.683295    22.437755     14.76599    19.731922    36.007056    67.340082    12.612127     22.30075    14.235163 
  547800    267.49004     59210846            0     59211887    12.683348    22.437716    14.766252    19.737245    36.003122    67.366327    12.612127     22.30075    14.235163 
  548000    197.97784     59211094            0     59211864     12.68332    22.437753    14.766119     19.73443    36.006765    67.352997    12.612127     22.30075    14.235163 
  548200    364.12848     59210755            0     59212172    12.683314    22.437754    14.766355    19.733841    36.006894    67.376637    12.612127     22.30075    14.235163 
  548400    193.21617     59210805            0     59211558    12.683327    22.437778    14.766175    19.735109    36.009351     67.35859    12.612127     22.30075    14.235163 
  548600    196.80748     59211536            0     59212302    12.683277    22.437756    14.765875    19.730128    36.007086    67.328635    12.612127     22.30075    14.235163 
  548800    190.00716     59211576            0     59212315    12.683303    22.437748     14.76619    19.732788     36.00628     67.36017    12.612127     22.30075    14.235163 
  549000    221.23516     59211476            0     59212337    12.683352    22.437766    14.766211    19.737615     36.00808    67.362246    12.612127     22.30075    14.235163 
  549200     159.5624     59212539            0     59213160     12.68331    22.437754    14.766421    19.733442    36.006908    67.383286    12.612127     22.30075    14.235163 
  549400    156.65593     59211293            0     59211903    12.683302    22.437736    14.766281    19.732602    36.005079    67.369285    12.612127     22.30075    14.235163 
  549600    183.93615     59210175            0     59210891    12.683287    22.437726    14.766257    19.731118     36.00412    67.366838    12.612127     22.30075    14.235163 
  549800     130.5715     59209625            0     59210133    12.683298    22.437761     14.76609    19.732215    36.007598    67.350132    12.612127     22.30075    14.235163 
  550000    276.46332     59211556            0     59212632    12.683314    22.437738    14.766346    19.733803    36.005298    67.375761    12.612127     22.30075    14.235163 
  550200    344.67215     59210451            0     59211793    12.683327    22.437753    14.765947     19.73518    36.006801    67.335866    12.612127     22.30075    14.235163 
  550400    204.34243     59212459            0     59213254    12.683315    22.437754    14.766033    19.733955    36.006916     67.34444    12.612127     22.30075    14.235163 
  550600    215.07765     59212163            0     59213001    12.683315    22.437754     14.76642    19.733979    36.006898    67.383133    12.612127     22.30075    14.235163 
  550800    176.82984     59211507            0     59212195    12.683252    22.437756    14.766061    19.727626     36.00714    67.347243    12.612127     22.30075    14.235163 
  551000    151.15112     59211307            0     59211895    12.683325    22.437752    14.766167    19.734997    36.006681    67.357837    12.612127     22.30075    14.235163 
  551200    183.88059     59211756            0     59212472    12.683347    22.437766    14.766183    19.737157    36.008111    67.359476    12.612127     22.30075    14.235163 
  551400      181.874     59211425            0     59212133      12.6833    22.437768    14.766453    19.732409    36.008359    67.386406    12.612127     22.30075    14.235163 
  551600    362.07613     59210917            0     59212327    12.683278    22.437754    14.766338    19.730275    36.006908