LAMMPS data file. CGCMM style. atom_style full generated by VMD/TopoTools v1.5 on Tue Jun 13 18:10:50 PDT 2017
 1416 atoms
 48 bonds
 0 angles
 0 dihedrals
 0 impropers
 11 atom types
 1 bond types
 0 angle types
 0 dihedral types
 0 improper types
 1.889376 45.443377  xlo xhi
 -2.136943 41.387055  ylo yhi
 -0.000501 27.319499  zlo zhi

# Pair Coeffs
#
# 1  Ca
# 2  Cb
# 3  Cc
# 4  Cd
# 5  Cg
# 6  H
# 7  Ni
# 8  Oa
# 9  Ob
# 10  Oc
# 11  Og

 Masses

 1 12.011000 # Ca
 2 12.011000 # Cb
 3 12.011000 # Cc
 4 12.011000 # Cd
 5 12.011000 # Cg
 6 1.008000 # H
 7 58.693001 # Ni
 8 15.999000 # Oa
 9 15.999000 # Ob
 10 15.999000 # Oc
 11 15.999000 # Og

 Atoms

1 1 11 -0.325600 19.059868 28.983534 22.809998 # Og 
2 1 5 0.651200 19.059868 28.983534 21.649998 # Cg 
3 1 11 -0.325600 19.059868 28.983534 20.489998 # Og 
4 2 11 -0.325600 19.057098 28.995790 9.150000 # Og 
5 2 5 0.651200 19.057098 28.995790 7.990000 # Cg 
6 2 11 -0.325600 19.057098 28.995790 6.830000 # Og 
7 3 11 -0.325600 13.615866 38.404533 22.809998 # Og 
8 3 5 0.651200 13.615866 38.404533 21.649998 # Cg 
9 3 11 -0.325600 13.615866 38.404533 20.489998 # Og 
10 4 11 -0.325600 13.613100 38.416790 9.150000 # Og 
11 4 5 0.651200 13.613100 38.416790 7.990000 # Cg 
12 4 11 -0.325600 13.613100 38.416790 6.830000 # Og 
13 5 11 -0.325600 29.947020 10.141243 22.809998 # Og 
14 5 5 0.651200 29.947020 10.141243 21.649998 # Cg 
15 5 11 -0.325600 29.947020 10.141243 20.489998 # Og 
16 6 11 -0.325600 29.945251 10.153500 9.150000 # Og 
17 6 5 0.651200 29.945251 10.153500 7.990000 # Cg 
18 6 11 -0.325600 29.945251 10.153500 6.830000 # Og 
19 7 11 -0.325600 24.503019 19.562243 22.809998 # Og 
20 7 5 0.651200 24.503019 19.562243 21.649998 # Cg 
21 7 11 -0.325600 24.503019 19.562243 20.489998 # Og 
22 8 11 -0.325600 24.501251 19.574499 9.150000 # Og 
23 8 5 0.651200 24.501251 19.574499 7.990000 # Cg 
24 8 11 -0.325600 24.501251 19.574499 6.830000 # Og 
25 9 11 -0.325600 29.947868 28.983534 22.809998 # Og 
26 9 5 0.651200 29.947868 28.983534 21.649998 # Cg 
27 9 11 -0.325600 29.947868 28.983534 20.489998 # Og 
28 10 11 -0.325600 29.946098 28.995790 9.150000 # Og 
29 10 5 0.651200 29.946098 28.995790 7.990000 # Cg 
30 10 11 -0.325600 29.946098 28.995790 6.830000 # Og 
31 11 11 -0.325600 24.503868 38.404533 22.809998 # Og 
32 11 5 0.651200 24.503868 38.404533 21.649998 # Cg 
33 11 11 -0.325600 24.503868 38.404533 20.489998 # Og 
34 12 11 -0.325600 24.502098 38.416790 9.150000 # Og 
35 12 5 0.651200 24.502098 38.416790 7.990000 # Cg 
36 12 11 -0.325600 24.502098 38.416790 6.830000 # Og 
37 13 11 -0.325600 40.836021 10.141243 22.809998 # Og 
38 13 5 0.651200 40.836021 10.141243 21.649998 # Cg 
39 13 11 -0.325600 40.836021 10.141243 20.489998 # Og 
40 14 11 -0.325600 40.833252 10.153500 9.150000 # Og 
41 14 5 0.651200 40.833252 10.153500 7.990000 # Cg 
42 14 11 -0.325600 40.833252 10.153500 6.830000 # Og 
43 15 11 -0.325600 35.392021 19.562243 22.809998 # Og 
44 15 5 0.651200 35.392021 19.562243 21.649998 # Cg 
45 15 11 -0.325600 35.392021 19.562243 20.489998 # Og 
46 16 11 -0.325600 35.389252 19.574499 9.150000 # Og 
47 16 5 0.651200 35.389252 19.574499 7.990000 # Cg 
48 16 11 -0.325600 35.389252 19.574499 6.830000 # Og 
49 17 11 -0.325600 40.836868 28.983534 22.809998 # Og 
50 17 5 0.651200 40.836868 28.983534 21.649998 # Cg 
51 17 11 -0.325600 40.836868 28.983534 20.489998 # Og 
52 18 11 -0.325600 40.834099 28.995790 9.150000 # Og 
53 18 5 0.651200 40.834099 28.995790 7.990000 # Cg 
54 18 11 -0.325600 40.834099 28.995790 6.830000 # Og 
55 19 11 -0.325600 35.392868 38.404533 22.809998 # Og 
56 19 5 0.651200 35.392868 38.404533 21.649998 # Cg 
57 19 11 -0.325600 35.392868 38.404533 20.489998 # Og 
58 20 11 -0.325600 35.390099 38.416790 9.150000 # Og 
59 20 5 0.651200 35.390099 38.416790 7.990000 # Cg 
60 20 11 -0.325600 35.390099 38.416790 6.830000 # Og 
61 21 11 -0.325600 8.170019 10.141243 22.809998 # Og 
62 21 5 0.651200 8.170019 10.141243 21.649998 # Cg 
63 21 11 -0.325600 8.170019 10.141243 20.489998 # Og 
64 22 11 -0.325600 8.168250 10.153500 9.150000 # Og 
65 22 5 0.651200 8.168250 10.153500 7.990000 # Cg 
66 22 11 -0.325600 8.168250 10.153500 6.830000 # Og 
67 23 11 -0.325600 46.280022 19.562243 22.809998 # Og 
68 23 5 0.651200 46.280022 19.562243 21.649998 # Cg 
69 23 11 -0.325600 46.280022 19.562243 20.489998 # Og 
70 24 11 -0.325600 46.278252 19.574499 9.150000 # Og 
71 24 5 0.651200 46.278252 19.574499 7.990000 # Cg 
72 24 11 -0.325600 46.278252 19.574499 6.830000 # Og 
73 25 6 0.130252 23.315117 36.931614 22.406998 # H LIG
74 25 6 0.130252 28.460117 30.566614 18.028000 # H LIG
75 25 6 0.130252 28.359118 28.288612 23.890999 # H LIG
76 25 6 0.130252 27.106117 29.963614 20.128998 # H LIG
77 25 6 0.130252 10.275270 0.999322 21.603998 # H LIG
78 25 6 0.130252 30.033119 37.634613 22.571999 # H LIG
79 25 6 0.130252 31.257118 36.723614 17.855000 # H LIG
80 25 6 0.130252 21.215117 36.630615 19.323999 # H LIG
81 25 6 0.130252 23.141117 35.414612 20.292000 # H LIG
82 25 6 0.130252 42.141270 0.946322 18.570000 # H LIG
83 25 6 0.130252 32.109268 1.032322 17.100998 # H LIG
84 25 6 0.130252 34.033272 2.250322 22.961998 # H LIG
85 25 6 0.130252 39.296268 9.384321 19.382999 # H LIG
86 25 6 0.130252 34.207268 0.735322 20.848000 # H LIG
87 25 6 0.130252 39.397270 7.109322 18.413998 # H LIG
88 25 6 0.130252 40.915268 0.036322 20.683998 # H LIG
89 25 6 0.130252 21.158117 36.664612 21.651999 # H LIG
90 25 6 0.130252 37.972271 7.711321 23.122999 # H LIG
91 25 7 1.286340 26.686117 33.660614 18.158998 # Ni LIG
92 25 7 1.286340 28.262117 34.517612 22.712999 # Ni LIG
93 25 7 1.286340 26.730118 35.453613 20.435999 # Ni LIG
94 25 7 1.286340 37.618271 2.221323 22.818998 # Ni LIG
95 25 7 1.286340 37.573269 4.017322 18.266998 # Ni LIG
96 25 7 1.286340 39.149269 3.158322 20.542999 # Ni LIG
97 25 3 0.449622 27.866117 31.570614 23.056999 # Cc LIG
98 25 2 -0.116375 24.340118 35.890614 17.132000 # Cb LIG
99 25 4 -0.185445 23.243118 36.598614 23.443998 # Cd LIG
100 25 2 -0.116375 22.106117 36.887615 17.368999 # Cb LIG
101 25 4 -0.185445 28.087118 29.147614 23.273998 # Cd LIG
102 25 4 -0.185445 28.154118 30.414614 23.821999 # Cd LIG
103 25 1 0.833564 25.448118 35.605614 23.021000 # Ca LIG
104 25 3 0.449622 29.475117 36.592613 20.778999 # Cc LIG
105 25 2 -0.116375 27.492117 31.370613 21.685999 # Cb LIG
106 25 4 -0.185445 27.421118 30.065613 21.167999 # Cd LIG
107 25 2 -0.116375 27.726118 28.935612 21.925999 # Cb LIG
108 25 4 -0.185445 9.675269 0.324322 20.991999 # Cd LIG
109 25 4 -0.185445 30.323116 37.433613 21.539000 # Cd LIG
110 25 1 0.833564 27.193117 32.471615 20.743999 # Ca LIG
111 25 3 0.449622 24.324118 35.460613 18.500999 # Cc LIG
112 25 2 -0.116375 29.839119 36.362614 19.410000 # Cb LIG
113 25 4 -0.185445 31.006119 36.952614 18.891998 # Cd LIG
114 25 2 -0.116375 10.048268 0.103322 19.647999 # Cb LIG
115 25 4 -0.185445 22.102118 36.453613 18.711998 # Cd LIG
116 25 4 -0.185445 23.169117 35.766613 19.259998 # Cd LIG
117 25 1 0.833564 29.037117 35.550613 18.467999 # Ca LIG
118 25 3 0.449622 35.214272 2.210322 17.924000 # Cc LIG
119 25 2 -0.116375 40.726269 1.310322 23.844999 # Cb LIG
120 25 4 -0.185445 41.889271 0.718322 17.532999 # Cd LIG
121 25 2 -0.116375 20.933117 37.562614 23.607998 # Cb LIG
122 25 4 -0.185445 32.995270 1.211322 17.712999 # Cd LIG
123 25 4 -0.185445 34.061272 1.900322 17.163998 # Cd LIG
124 25 1 0.833564 39.925270 2.128322 17.956999 # Ca LIG
125 25 3 0.449622 38.762268 6.105322 20.202000 # Cc LIG
126 25 2 -0.116375 35.231270 1.780322 19.292999 # Cb LIG
127 25 4 -0.185445 34.135269 1.067322 19.811998 # Cd LIG
128 25 2 -0.116375 32.999271 0.779322 19.056999 # Cb LIG
129 25 4 -0.185445 39.004269 8.527321 19.993000 # Cd LIG
130 25 4 -0.185445 39.072269 7.259322 19.443998 # Cd LIG
131 25 1 0.833564 36.337269 2.066322 20.233999 # Ca LIG
132 25 3 0.449622 40.361271 1.081322 22.475998 # Cc LIG
133 25 2 -0.116375 38.376270 6.304323 21.568998 # Cb LIG
134 25 4 -0.185445 38.300270 7.609322 22.087999 # Cd LIG
135 25 2 -0.116375 38.618271 8.739323 21.334000 # Cb LIG
136 25 4 -0.185445 20.560118 37.342613 22.264000 # Cd LIG
137 25 4 -0.185445 41.205269 0.236322 21.716000 # Cd LIG
138 25 1 0.833564 38.074268 5.203322 22.510998 # Ca LIG
139 25 10 -0.719651 39.266270 1.569322 21.870998 # Oc LIG
140 25 8 -0.731428 38.222271 3.983323 22.092999 # Oa LIG
141 25 9 -0.720115 40.317268 2.323322 19.148998 # Ob LIG
142 25 10 -0.719651 38.891270 4.913322 19.594999 # Oc LIG
143 25 8 -0.731428 37.322269 2.800322 19.815998 # Oa LIG
144 25 9 -0.720115 37.709270 5.444322 23.703999 # Ob LIG
145 25 10 -0.719651 36.184269 2.916322 17.319000 # Oc LIG
146 25 8 -0.731428 38.797272 2.614322 17.538998 # Oa LIG
147 25 9 -0.720115 36.310268 1.628322 21.426998 # Ob LIG
148 25 10 -0.719651 25.295118 34.757614 19.107998 # Oc LIG
149 25 8 -0.731428 27.907118 35.068615 18.884998 # Oa LIG
150 25 9 -0.720115 25.420118 36.043613 21.828999 # Ob LIG
151 25 10 -0.719651 28.001118 32.762615 23.660000 # Oc LIG
152 25 8 -0.731428 26.434118 34.873611 23.438999 # Oa LIG
153 25 9 -0.720115 26.827118 32.230614 19.550999 # Ob LIG
154 25 10 -0.719651 28.378119 36.108612 21.383999 # Oc LIG
155 25 8 -0.731428 27.341118 33.692612 21.160999 # Oa LIG
156 25 9 -0.720115 29.430119 35.353615 17.275999 # Ob LIG
157 25 6 0.130252 23.311541 36.941936 1.917000 # H LIG
158 25 6 0.130252 28.461311 30.568680 24.857998 # H LIG
159 25 6 0.130252 28.355541 28.298935 3.401000 # H LIG
160 25 6 0.130252 27.107311 29.965679 26.958998 # H LIG
161 25 6 0.130252 10.271692 1.009645 1.114000 # H LIG
162 25 6 0.130252 30.029541 37.644936 2.082000 # H LIG
163 25 6 0.130252 31.258310 36.725677 24.684998 # H LIG
164 25 6 0.130252 21.216311 36.632679 26.153997 # H LIG
165 25 6 0.130252 23.142309 35.416679 27.121998 # H LIG
166 25 6 0.130252 42.142464 0.948388 25.399998 # H LIG
167 25 6 0.130252 32.110462 1.034388 23.930998 # H LIG
168 25 6 0.130252 34.029694 2.260644 2.472000 # H LIG
169 25 6 0.130252 39.297462 9.386387 26.212997 # H LIG
170 25 6 0.130252 34.203693 0.745645 0.358000 # H LIG
171 25 6 0.130252 39.398460 7.111388 25.243998 # H LIG
172 25 6 0.130252 40.911694 0.046644 0.194000 # H LIG
173 25 6 0.130252 21.154541 36.674934 1.162000 # H LIG
174 25 6 0.130252 37.968693 7.721643 2.633000 # H LIG
175 25 7 1.286340 26.687309 33.662678 24.988998 # Ni LIG
176 25 7 1.286340 28.258541 34.527935 2.223000 # Ni LIG
177 25 7 1.286340 26.731310 35.455681 27.265999 # Ni LIG
178 25 7 1.286340 37.614693 2.231645 2.329000 # Ni LIG
179 25 7 1.286340 37.574463 4.019388 25.096998 # Ni LIG
180 25 7 1.286340 39.145691 3.168644 0.053000 # Ni LIG
181 25 3 0.449622 27.862541 31.580936 2.567000 # Cc LIG
182 25 2 -0.116375 24.341311 35.892677 23.961998 # Cb LIG
183 25 4 -0.185445 23.239540 36.608936 2.954000 # Cd LIG
184 25 2 -0.116375 22.107309 36.889679 24.198997 # Cb LIG
185 25 4 -0.185445 28.083542 29.157936 2.784000 # Cd LIG
186 25 4 -0.185445 28.150541 30.424934 3.332000 # Cd LIG
187 25 1 0.833564 25.444542 35.615936 2.531000 # Ca LIG
188 25 3 0.449622 29.471540 36.602936 0.289000 # Cc LIG
189 25 2 -0.116375 27.488541 31.380936 1.196000 # Cb LIG
190 25 4 -0.185445 27.417542 30.075935 0.678000 # Cd LIG
191 25 2 -0.116375 27.722542 28.945934 1.436000 # Cb LIG
192 25 4 -0.185445 9.671692 0.334644 0.502000 # Cd LIG
193 25 4 -0.185445 30.319542 37.443935 1.049001 # Cd LIG
194 25 1 0.833564 27.189541 32.481934 0.254000 # Ca LIG
195 25 3 0.449622 24.325310 35.462681 25.330997 # Cc LIG
196 25 2 -0.116375 29.840309 36.364677 26.239998 # Cb LIG
197 25 4 -0.185445 31.007309 36.954678 25.721998 # Cd LIG
198 25 2 -0.116375 10.049461 0.105388 26.477999 # Cb LIG
199 25 4 -0.185445 22.103310 36.455681 25.541998 # Cd LIG
200 25 4 -0.185445 23.170309 35.768681 26.089998 # Cd LIG
201 25 1 0.833564 29.038311 35.552681 25.297998 # Ca LIG
202 25 3 0.449622 35.215462 2.212388 24.753998 # Cc LIG
203 25 2 -0.116375 40.722694 1.320644 3.355000 # Cb LIG
204 25 4 -0.185445 41.890461 0.720388 24.362999 # Cd LIG
205 25 2 -0.116375 20.929541 37.572937 3.118000 # Cb LIG
206 25 4 -0.185445 32.996464 1.213388 24.542997 # Cd LIG
207 25 4 -0.185445 34.062462 1.902388 23.993998 # Cd LIG
208 25 1 0.833564 39.926464 2.130388 24.786999 # Ca LIG
209 25 3 0.449622 38.763462 6.107388 27.031998 # Cc LIG
210 25 2 -0.116375 35.232464 1.782388 26.122997 # Cb LIG
211 25 4 -0.185445 34.136463 1.069388 26.641998 # Cd LIG
212 25 2 -0.116375 33.000462 0.781388 25.886997 # Cb LIG
213 25 4 -0.185445 39.005463 8.529387 26.822998 # Cd LIG
214 25 4 -0.185445 39.073463 7.261387 26.273998 # Cd LIG
215 25 1 0.833564 36.338463 2.068388 27.063997 # Ca LIG
216 25 3 0.449622 40.357693 1.091644 1.986000 # Cc LIG
217 25 2 -0.116375 38.372692 6.314645 1.079000 # Cb LIG
218 25 4 -0.185445 38.296692 7.619644 1.598000 # Cd LIG
219 25 2 -0.116375 38.614693 8.749645 0.844000 # Cb LIG
220 25 4 -0.185445 20.556541 37.352936 1.774000 # Cd LIG
221 25 4 -0.185445 41.201694 0.246644 1.226000 # Cd LIG
222 25 1 0.833564 38.070694 5.213644 2.021000 # Ca LIG
223 25 10 -0.719651 39.262695 1.579644 1.381000 # Oc LIG
224 25 8 -0.731428 38.218693 3.993645 1.603000 # Oa LIG
225 25 9 -0.720115 40.318462 2.325387 25.978998 # Ob LIG
226 25 10 -0.719651 38.892464 4.915388 26.424997 # Oc LIG
227 25 8 -0.731428 37.323463 2.802388 26.645998 # Oa LIG
228 25 9 -0.720115 37.705692 5.454644 3.214000 # Ob LIG
229 25 10 -0.719651 36.185463 2.918388 24.148998 # Oc LIG
230 25 8 -0.731428 38.798462 2.616388 24.368998 # Oa LIG
231 25 9 -0.720115 36.306694 1.638644 0.937001 # Ob LIG
232 25 10 -0.719651 25.296310 34.759678 25.937998 # Oc LIG
233 25 8 -0.731428 27.908310 35.070679 25.714998 # Oa LIG
234 25 9 -0.720115 25.416542 36.053936 1.339000 # Ob LIG
235 25 10 -0.719651 27.997540 32.772934 3.170000 # Oc LIG
236 25 8 -0.731428 26.430542 34.883934 2.949000 # Oa LIG
237 25 9 -0.720115 26.828310 32.232677 26.380999 # Ob LIG
238 25 10 -0.719651 28.374542 36.118935 0.894000 # Oc LIG
239 25 8 -0.731428 27.337540 33.702934 0.671000 # Oa LIG
240 25 9 -0.720115 29.431311 35.355679 24.105999 # Ob LIG
241 25 6 0.130252 23.312733 36.944000 8.747000 # H LIG
242 25 6 0.130252 28.457733 30.579002 4.368000 # H LIG
243 25 6 0.130252 28.356733 28.301003 10.231000 # H LIG
244 25 6 0.130252 27.103733 29.976002 6.469000 # H LIG
245 25 6 0.130252 10.272884 1.011710 7.943999 # H LIG
246 25 6 0.130252 30.030733 37.647003 8.912000 # H LIG
247 25 6 0.130252 31.254734 36.736000 4.195000 # H LIG
248 25 6 0.130252 21.212732 36.643002 5.664000 # H LIG
249 25 6 0.130252 23.138733 35.427002 6.632000 # H LIG
250 25 6 0.130252 42.138885 0.958710 4.910000 # H LIG
251 25 6 0.130252 32.106888 1.044710 3.441000 # H LIG
252 25 6 0.130252 34.030884 2.262710 9.302000 # H LIG
253 25 6 0.130252 39.293884 9.396709 5.723000 # H LIG
254 25 6 0.130252 34.204887 0.747710 7.188000 # H LIG
255 25 6 0.130252 39.394886 7.121710 4.754000 # H LIG
256 25 6 0.130252 40.912884 0.048710 7.024000 # H LIG
257 25 6 0.130252 21.155733 36.677002 7.992000 # H LIG
258 25 6 0.130252 37.969887 7.723709 9.462999 # H LIG
259 25 7 1.286340 26.683733 33.673000 4.499000 # Ni LIG
260 25 7 1.286340 28.259733 34.530003 9.052999 # Ni LIG
261 25 7 1.286340 26.727734 35.466003 6.776000 # Ni LIG
262 25 7 1.286340 37.615887 2.233710 9.158999 # Ni LIG
263 25 7 1.286340 37.570885 4.029710 4.607000 # Ni LIG
264 25 7 1.286340 39.146885 3.170710 6.882999 # Ni LIG
265 25 3 0.449622 27.863733 31.583000 9.396999 # Cc LIG
266 25 2 -0.116375 24.337734 35.903000 3.472000 # Cb LIG
267 25 4 -0.185445 23.240734 36.611000 9.783999 # Cd LIG
268 25 2 -0.116375 22.103733 36.900002 3.709000 # Cb LIG
269 25 4 -0.185445 28.084732 29.160002 9.613999 # Cd LIG
270 25 4 -0.185445 28.151733 30.427002 10.162000 # Cd LIG
271 25 1 0.833564 25.445732 35.618000 9.361000 # Ca LIG
272 25 3 0.449622 29.472733 36.605003 7.118999 # Cc LIG
273 25 2 -0.116375 27.489733 31.383001 8.026000 # Cb LIG
274 25 4 -0.185445 27.418732 30.078001 7.507999 # Cd LIG
275 25 2 -0.116375 27.723732 28.948002 8.266000 # Cb LIG
276 25 4 -0.185445 9.672884 0.336710 7.332000 # Cd LIG
277 25 4 -0.185445 30.320732 37.445999 7.879000 # Cd LIG
278 25 1 0.833564 27.190733 32.484001 7.084000 # Ca LIG
279 25 3 0.449622 24.321733 35.473000 4.841000 # Cc LIG
280 25 2 -0.116375 29.836733 36.375000 5.750000 # Cb LIG
281 25 4 -0.185445 31.003733 36.965000 5.232000 # Cd LIG
282 25 2 -0.116375 10.045884 0.115710 5.988000 # Cb LIG
283 25 4 -0.185445 22.099733 36.466003 5.052000 # Cd LIG
284 25 4 -0.185445 23.166733 35.778999 5.599999 # Cd LIG
285 25 1 0.833564 29.034733 35.563000 4.808000 # Ca LIG
286 25 3 0.449622 35.211884 2.222710 4.264000 # Cc LIG
287 25 2 -0.116375 40.723885 1.322710 10.184999 # Cb LIG
288 25 4 -0.185445 41.886887 0.730710 3.873000 # Cd LIG
289 25 2 -0.116375 20.930733 37.575001 9.948000 # Cb LIG
290 25 4 -0.185445 32.992886 1.223710 4.052999 # Cd LIG
291 25 4 -0.185445 34.058884 1.912710 3.504000 # Cd LIG
292 25 1 0.833564 39.922886 2.140710 4.297000 # Ca LIG
293 25 3 0.449622 38.759884 6.117710 6.542000 # Cc LIG
294 25 2 -0.116375 35.228886 1.792710 5.632999 # Cb LIG
295 25 4 -0.185445 34.132885 1.079710 6.151999 # Cd LIG
296 25 2 -0.116375 32.996887 0.791710 5.397000 # Cb LIG
297 25 4 -0.185445 39.001884 8.539709 6.333000 # Cd LIG
298 25 4 -0.185445 39.069885 7.271709 5.783999 # Cd LIG
299 25 1 0.833564 36.334885 2.078710 6.573999 # Ca LIG
300 25 3 0.449622 40.358887 1.093710 8.816000 # Cc LIG
301 25 2 -0.116375 38.373886 6.316710 7.908999 # Cb LIG
302 25 4 -0.185445 38.297886 7.621710 8.427999 # Cd LIG
303 25 2 -0.116375 38.615887 8.751711 7.674000 # Cb LIG
304 25 4 -0.185445 20.557734 37.355003 8.604000 # Cd LIG
305 25 4 -0.185445 41.202885 0.248710 8.056000 # Cd LIG
306 25 1 0.833564 38.071884 5.215710 8.851000 # Ca LIG
307 25 10 -0.719651 39.263885 1.581710 8.210999 # Oc LIG
308 25 8 -0.731428 38.219887 3.995710 8.433000 # Oa LIG
309 25 9 -0.720115 40.314884 2.335710 5.488999 # Ob LIG
310 25 10 -0.719651 38.888885 4.925710 5.934999 # Oc LIG
311 25 8 -0.731428 37.319885 2.812710 6.156000 # Oa LIG
312 25 9 -0.720115 37.706886 5.456710 10.044000 # Ob LIG
313 25 10 -0.719651 36.181885 2.928710 3.659000 # Oc LIG
314 25 8 -0.731428 38.794884 2.626710 3.879000 # Oa LIG
315 25 9 -0.720115 36.307884 1.640710 7.767000 # Ob LIG
316 25 10 -0.719651 25.292732 34.770000 5.448000 # Oc LIG
317 25 8 -0.731428 27.904732 35.081001 5.224999 # Oa LIG
318 25 9 -0.720115 25.417732 36.056000 8.169000 # Ob LIG
319 25 10 -0.719651 27.998734 32.775002 10.000000 # Oc LIG
320 25 8 -0.731428 26.431732 34.886002 9.778999 # Oa LIG
321 25 9 -0.720115 26.824734 32.243000 5.891000 # Ob LIG
322 25 10 -0.719651 28.375732 36.121002 7.724000 # Oc LIG
323 25 8 -0.731428 27.338734 33.705002 7.500999 # Oa LIG
324 25 9 -0.720115 29.427734 35.366001 3.616000 # Ob LIG
325 25 6 0.130252 23.313927 36.946068 15.576999 # H LIG
326 25 6 0.130252 28.458925 30.581068 11.197999 # H LIG
327 25 6 0.130252 28.357925 28.303068 17.060999 # H LIG
328 25 6 0.130252 27.104925 29.978067 13.298999 # H LIG
329 25 6 0.130252 10.274076 1.013777 14.773998 # H LIG
330 25 6 0.130252 30.031925 37.649067 15.741999 # H LIG
331 25 6 0.130252 31.255926 36.738068 11.024999 # H LIG
332 25 6 0.130252 21.213924 36.645069 12.493999 # H LIG
333 25 6 0.130252 23.139925 35.429070 13.461999 # H LIG
334 25 6 0.130252 42.140076 0.960776 11.739999 # H LIG
335 25 6 0.130252 32.108078 1.046777 10.270999 # H LIG
336 25 6 0.130252 34.032078 2.264776 16.132000 # H LIG
337 25 6 0.130252 39.295078 9.398776 12.552999 # H LIG
338 25 6 0.130252 34.206078 0.749777 14.017999 # H LIG
339 25 6 0.130252 39.396076 7.123776 11.583999 # H LIG
340 25 6 0.130252 40.914078 0.050776 13.853999 # H LIG
341 25 6 0.130252 21.156925 36.679070 14.821999 # H LIG
342 25 6 0.130252 37.971077 7.725776 16.292999 # H LIG
343 25 7 1.286340 26.684925 33.675068 11.328999 # Ni LIG
344 25 7 1.286340 28.260925 34.532066 15.882999 # Ni LIG
345 25 7 1.286340 26.728926 35.468067 13.605999 # Ni LIG
346 25 7 1.286340 37.617077 2.235777 15.988998 # Ni LIG
347 25 7 1.286340 37.572079 4.031776 11.436999 # Ni LIG
348 25 7 1.286340 39.148079 3.172776 13.712999 # Ni LIG
349 25 3 0.449622 27.864925 31.585068 16.226999 # Cc LIG
350 25 2 -0.116375 24.338926 35.905067 10.301999 # Cb LIG
351 25 4 -0.185445 23.241926 36.613068 16.613998 # Cd LIG
352 25 2 -0.116375 22.104925 36.902069 10.538999 # Cb LIG
353 25 4 -0.185445 28.085926 29.162067 16.443998 # Cd LIG
354 25 4 -0.185445 28.152925 30.429068 16.991999 # Cd LIG
355 25 1 0.833564 25.446926 35.620068 16.190998 # Ca LIG
356 25 3 0.449622 29.473925 36.607067 13.948999 # Cc LIG
357 25 2 -0.116375 27.490925 31.385067 14.855999 # Cb LIG
358 25 4 -0.185445 27.419926 30.080067 14.337999 # Cd LIG
359 25 2 -0.116375 27.724926 28.950068 15.095999 # Cb LIG
360 25 4 -0.185445 9.674076 0.338777 14.161999 # Cd LIG
361 25 4 -0.185445 30.321926 37.448067 14.709000 # Cd LIG
362 25 1 0.833564 27.191925 32.486069 13.913999 # Ca LIG
363 25 3 0.449622 24.322926 35.475067 11.670999 # Cc LIG
364 25 2 -0.116375 29.837925 36.377068 12.579999 # Cb LIG
365 25 4 -0.185445 31.004925 36.967068 12.061999 # Cd LIG
366 25 2 -0.116375 10.047077 0.117777 12.817999 # Cb LIG
367 25 4 -0.185445 22.100925 36.468067 11.881999 # Cd LIG
368 25 4 -0.185445 23.167925 35.781067 12.429998 # Cd LIG
369 25 1 0.833564 29.035925 35.565067 11.637999 # Ca LIG
370 25 3 0.449622 35.213078 2.224776 11.093999 # Cc LIG
371 25 2 -0.116375 40.725079 1.324777 17.014999 # Cb LIG
372 25 4 -0.185445 41.888077 0.732777 10.702999 # Cd LIG
373 25 2 -0.116375 20.931927 37.577068 16.778000 # Cb LIG
374 25 4 -0.185445 32.994080 1.225777 10.882999 # Cd LIG
375 25 4 -0.185445 34.060078 1.914777 10.333999 # Cd LIG
376 25 1 0.833564 39.924076 2.142776 11.126999 # Ca LIG
377 25 3 0.449622 38.761078 6.119777 13.371999 # Cc LIG
378 25 2 -0.116375 35.230080 1.794777 12.462999 # Cb LIG
379 25 4 -0.185445 34.134079 1.081777 12.981998 # Cd LIG
380 25 2 -0.116375 32.998077 0.793777 12.226999 # Cb LIG
381 25 4 -0.185445 39.003078 8.541776 13.162999 # Cd LIG
382 25 4 -0.185445 39.071079 7.273776 12.613998 # Cd LIG
383 25 1 0.833564 36.336079 2.080776 13.403999 # Ca LIG
384 25 3 0.449622 40.360077 1.095777 15.645999 # Cc LIG
385 25 2 -0.116375 38.375076 6.318777 14.738998 # Cb LIG
386 25 4 -0.185445 38.299080 7.623776 15.257999 # Cd LIG
387 25 2 -0.116375 38.617077 8.753778 14.503999 # Cb LIG
388 25 4 -0.185445 20.558926 37.357067 15.433999 # Cd LIG
389 25 4 -0.185445 41.204079 0.250776 14.885999 # Cd LIG
390 25 1 0.833564 38.073078 5.217776 15.680999 # Ca LIG
391 25 10 -0.719651 39.265076 1.583776 15.040998 # Oc LIG
392 25 8 -0.731428 38.221077 3.997777 15.262999 # Oa LIG
393 25 9 -0.720115 40.316078 2.337776 12.318998 # Ob LIG
394 25 10 -0.719651 38.890076 4.927776 12.764999 # Oc LIG
395 25 8 -0.731428 37.321079 2.814776 12.985999 # Oa LIG
396 25 9 -0.720115 37.708076 5.458776 16.873999 # Ob LIG
397 25 10 -0.719651 36.183079 2.930777 10.488999 # Oc LIG
398 25 8 -0.731428 38.796078 2.628777 10.708999 # Oa LIG
399 25 9 -0.720115 36.309078 1.642776 14.596999 # Ob LIG
400 25 10 -0.719651 25.293926 34.772068 12.277999 # Oc LIG
401 25 8 -0.731428 27.905926 35.083069 12.054998 # Oa LIG
402 25 9 -0.720115 25.418926 36.058067 14.998999 # Ob LIG
403 25 10 -0.719651 27.999926 32.777069 16.829998 # Oc LIG
404 25 8 -0.731428 26.432926 34.888069 16.608999 # Oa LIG
405 25 9 -0.720115 26.825926 32.245068 12.720999 # Ob LIG
406 25 10 -0.719651 28.376926 36.123070 14.553999 # Oc LIG
407 25 8 -0.731428 27.339926 33.707069 14.330999 # Oa LIG
408 25 9 -0.720115 29.428926 35.368069 10.445999 # Ob LIG
409 25 6 0.130252 34.202694 18.088966 22.406998 # H LIG
410 25 6 0.130252 39.347694 11.723967 18.028000 # H LIG
411 25 6 0.130252 39.246696 9.445967 23.890999 # H LIG
412 25 6 0.130252 37.993694 11.120966 20.128998 # H LIG
413 25 6 0.130252 42.941692 19.841967 21.603998 # H LIG
414 25 6 0.130252 40.920692 18.791967 22.571999 # H LIG
415 25 6 0.130252 42.144695 17.880966 17.855000 # H LIG
416 25 6 0.130252 32.102695 17.787966 19.323999 # H LIG
417 25 6 0.130252 34.028694 16.571966 20.292000 # H LIG
418 25 6 0.130252 31.253693 19.788965 18.570000 # H LIG
419 25 6 0.130252 21.221693 19.874968 17.100998 # H LIG
420 25 6 0.130252 23.145693 21.092966 22.961998 # H LIG
421 25 6 0.130252 28.408695 28.226965 19.382999 # H LIG
422 25 6 0.130252 23.319693 19.577967 20.848000 # H LIG
423 25 6 0.130252 28.509693 25.951967 18.413998 # H LIG
424 25 6 0.130252 30.027695 18.878965 20.683998 # H LIG
425 25 6 0.130252 32.045692 17.821966 21.651999 # H LIG
426 25 6 0.130252 27.084694 26.553965 23.122999 # H LIG
427 25 7 1.286340 37.573692 14.817966 18.158998 # Ni LIG
428 25 7 1.286340 39.149696 15.674967 22.712999 # Ni LIG
429 25 7 1.286340 37.617695 16.610968 20.435999 # Ni LIG
430 25 7 1.286340 26.730694 21.063967 22.818998 # Ni LIG
431 25 7 1.286340 26.685694 22.859966 18.266998 # Ni LIG
432 25 7 1.286340 28.261694 22.000967 20.542999 # Ni LIG
433 25 3 0.449622 38.753693 12.727966 23.056999 # Cc LIG
434 25 2 -0.116375 35.227695 17.047966 17.132000 # Cb LIG
435 25 4 -0.185445 34.130695 17.755966 23.443998 # Cd LIG
436 25 2 -0.116375 32.993694 18.044966 17.368999 # Cb LIG
437 25 4 -0.185445 38.974693 10.304966 23.273998 # Cd LIG
438 25 4 -0.185445 39.041695 11.571966 23.821999 # Cd LIG
439 25 1 0.833564 36.335693 16.762966 23.021000 # Ca LIG
440 25 3 0.449622 40.362694 17.749968 20.778999 # Cc LIG
441 25 2 -0.116375 38.379692 12.527966 21.685999 # Cb LIG
442 25 4 -0.185445 38.308693 11.222966 21.167999 # Cd LIG
443 25 2 -0.116375 38.613693 10.092966 21.925999 # Cb LIG
444 25 4 -0.185445 42.341694 19.166967 20.991999 # Cd LIG
445 25 4 -0.185445 41.210693 18.590967 21.539000 # Cd LIG
446 25 1 0.833564 38.080696 13.628966 20.743999 # Ca LIG
447 25 3 0.449622 35.211693 16.617968 18.500999 # Cc LIG
448 25 2 -0.116375 40.726692 17.519966 19.410000 # Cb LIG
449 25 4 -0.185445 41.893692 18.109966 18.891998 # Cd LIG
450 25 2 -0.116375 42.714695 18.945967 19.647999 # Cb LIG
451 25 4 -0.185445 32.989693 17.610968 18.711998 # Cd LIG
452 25 4 -0.185445 34.056694 16.923967 19.259998 # Cd LIG
453 25 1 0.833564 39.924694 16.707966 18.467999 # Ca LIG
454 25 3 0.449622 24.326693 21.052965 17.924000 # Cc LIG
455 25 2 -0.116375 29.838696 20.152967 23.844999 # Cb LIG
456 25 4 -0.185445 31.001694 19.560966 17.532999 # Cd LIG
457 25 2 -0.116375 31.820694 18.719967 23.607998 # Cb LIG
458 25 4 -0.185445 22.107693 20.053967 17.712999 # Cd LIG
459 25 4 -0.185445 23.173693 20.742968 17.163998 # Cd LIG
460 25 1 0.833564 29.037693 20.970966 17.956999 # Ca LIG
461 25 3 0.449622 27.874695 24.947966 20.202000 # Cc LIG
462 25 2 -0.116375 24.343693 20.622967 19.292999 # Cb LIG
463 25 4 -0.185445 23.247694 19.909967 19.811998 # Cd LIG
464 25 2 -0.116375 22.111694 19.621965 19.056999 # Cb LIG
465 25 4 -0.185445 28.116695 27.369967 19.993000 # Cd LIG
466 25 4 -0.185445 28.184694 26.101965 19.443998 # Cd LIG
467 25 1 0.833564 25.449694 20.908966 20.233999 # Ca LIG
468 25 3 0.449622 29.473694 19.923967 22.475998 # Cc LIG
469 25 2 -0.116375 27.488693 25.146967 21.568998 # Cb LIG
470 25 4 -0.185445 27.412693 26.451967 22.087999 # Cd LIG
471 25 2 -0.116375 27.730694 27.581968 21.334000 # Cb LIG
472 25 4 -0.185445 31.447693 18.499968 22.264000 # Cd LIG
473 25 4 -0.185445 30.317696 19.078966 21.716000 # Cd LIG
474 25 1 0.833564 27.186693 24.045965 22.510998 # Ca LIG
475 25 10 -0.719651 28.378695 20.411966 21.870998 # Oc LIG
476 25 8 -0.731428 27.334694 22.825968 22.092999 # Oa LIG
477 25 9 -0.720115 29.429695 21.165966 19.148998 # Ob LIG
478 25 10 -0.719651 28.003695 23.755966 19.594999 # Oc LIG
479 25 8 -0.731428 26.434692 21.642965 19.815998 # Oa LIG
480 25 9 -0.720115 26.821693 24.286966 23.703999 # Ob LIG
481 25 10 -0.719651 25.296694 21.758966 17.319000 # Oc LIG
482 25 8 -0.731428 27.909695 21.456966 17.538998 # Oa LIG
483 25 9 -0.720115 25.422693 20.470966 21.426998 # Ob LIG
484 25 10 -0.719651 36.182693 15.914967 19.107998 # Oc LIG
485 25 8 -0.731428 38.794693 16.225965 18.884998 # Oa LIG
486 25 9 -0.720115 36.307693 17.200966 21.828999 # Ob LIG
487 25 10 -0.719651 38.888695 13.919967 23.660000 # Oc LIG
488 25 8 -0.731428 37.321693 16.030966 23.438999 # Oa LIG
489 25 9 -0.720115 37.714695 13.387966 19.550999 # Ob LIG
490 25 10 -0.719651 39.265694 17.265966 21.383999 # Oc LIG
491 25 8 -0.731428 38.228695 14.849966 21.160999 # Oa LIG
492 25 9 -0.720115 40.317696 16.510965 17.275999 # Ob LIG
493 25 6 0.130252 34.199120 18.099289 1.917000 # H LIG
494 25 6 0.130252 39.348885 11.726033 24.857998 # H LIG
495 25 6 0.130252 39.243118 9.456290 3.401000 # H LIG
496 25 6 0.130252 37.994888 11.123034 26.958998 # H LIG
497 25 6 0.130252 42.938118 19.852291 1.114000 # H LIG
498 25 6 0.130252 40.917118 18.802290 2.082000 # H LIG
499 25 6 0.130252 42.145885 17.883032 24.684998 # H LIG
500 25 6 0.130252 32.103886 17.790033 26.153997 # H LIG
501 25 6 0.130252 34.029884 16.574034 27.121998 # H LIG
502 25 6 0.130252 31.254887 19.791033 25.399998 # H LIG
503 25 6 0.130252 21.222885 19.877033 23.930998 # H LIG
504 25 6 0.130252 23.142117 21.103291 2.472000 # H LIG
505 25 6 0.130252 28.409885 28.229033 26.212997 # H LIG
506 25 6 0.130252 23.316116 19.588291 0.358000 # H LIG
507 25 6 0.130252 28.510887 25.954033 25.243998 # H LIG
508 25 6 0.130252 30.024117 18.889290 0.194000 # H LIG
509 25 6 0.130252 32.042118 17.832291 1.162000 # H LIG
510 25 6 0.130252 27.081118 26.564289 2.633000 # H LIG
511 25 7 1.286340 37.574886 14.820033 24.988998 # Ni LIG
512 25 7 1.286340 39.146118 15.685289 2.223000 # Ni LIG
513 25 7 1.286340 37.618885 16.613033 27.265999 # Ni LIG
514 25 7 1.286340 26.727118 21.074291 2.329000 # Ni LIG
515 25 7 1.286340 26.686886 22.862032 25.096998 # Ni LIG
516 25 7 1.286340 28.258118 22.011290 0.053000 # Ni LIG
517 25 3 0.449622 38.750118 12.738290 2.567000 # Cc LIG
518 25 2 -0.116375 35.228886 17.050034 23.961998 # Cb LIG
519 25 4 -0.185445 34.127117 17.766289 2.954000 # Cd LIG
520 25 2 -0.116375 32.994888 18.047033 24.198997 # Cb LIG
521 25 4 -0.185445 38.971115 10.315290 2.784000 # Cd LIG
522 25 4 -0.185445 39.038116 11.582290 3.332000 # Cd LIG