LAMMPS data file. CGCMM style. atom_style full generated by VMD/TopoTools v1.5 on Sun Mar 05 19:09:39 PST 2017
 1345 atoms
 0 bonds
 0 angles
 0 dihedrals
 0 impropers
 10 atom types
 0 bond types
 0 angle types
 0 dihedral types
 0 improper types
 0.444700 26.558700  xlo xhi
 0.314250 45.544250  ylo yhi
 -0.401771 27.265229  zlo zhi

# Pair Coeffs
#
# 1  CH4
# 2  Ca
# 3  Cb
# 4  Cc
# 5  Cd
# 6  H
# 7  Mg
# 8  Oa
# 9  Ob
# 10  Oc

 Masses

 1 16.040001 # CH4
 2 12.011000 # Ca
 3 12.011000 # Cb
 4 12.011000 # Cc
 5 12.011000 # Cd
 6 1.008000 # H
 7 24.305000 # Mg
 8 15.999000 # Oa
 9 15.999000 # Ob
 10 15.999000 # Oc

 Atoms

1 1 1 0.000000 26.114401 45.230499 14.898000 # CH4 
2 1 1 0.000000 26.114401 45.230499 17.026001 # CH4 
3 1 1 0.000000 26.114401 45.230499 19.153999 # CH4 
4 1 1 0.000000 26.114401 45.230499 21.282000 # CH4 
5 1 1 0.000000 26.114401 45.230499 23.410999 # CH4 
6 1 1 0.000000 26.114401 45.230499 25.539000 # CH4 
7 1 1 0.000000 26.114401 45.230499 0.000000 # CH4 
8 1 1 0.000000 26.114401 45.230499 2.128000 # CH4 
9 1 1 0.000000 26.114401 45.230499 4.256000 # CH4 
10 1 1 0.000000 26.114401 45.230499 6.385000 # CH4 
11 1 1 0.000000 26.114401 45.230499 8.513000 # CH4 
12 1 1 0.000000 26.114401 45.230499 10.641000 # CH4 
13 1 1 0.000000 26.114401 45.230499 12.769000 # CH4 
14 1 1 0.000000 26.114401 22.614500 14.898000 # CH4 
15 1 1 0.000000 26.114401 22.614500 17.026001 # CH4 
16 1 1 0.000000 26.114401 22.614500 19.153999 # CH4 
17 1 1 0.000000 26.114401 22.614500 21.282000 # CH4 
18 1 1 0.000000 26.114401 22.614500 23.410999 # CH4 
19 1 1 0.000000 26.114401 22.614500 25.539000 # CH4 
20 1 1 0.000000 26.114401 22.614500 0.000000 # CH4 
21 1 1 0.000000 26.114401 22.614500 2.128000 # CH4 
22 1 1 0.000000 26.114401 22.614500 4.256000 # CH4 
23 1 1 0.000000 26.114401 22.614500 6.385000 # CH4 
24 1 1 0.000000 26.114401 22.614500 8.513000 # CH4 
25 1 1 0.000000 26.114401 22.614500 10.641000 # CH4 
26 1 1 0.000000 26.114401 22.614500 12.769000 # CH4 
27 1 1 0.000000 13.056400 45.230499 14.898000 # CH4 
28 1 1 0.000000 13.056400 45.230499 17.026001 # CH4 
29 1 1 0.000000 13.056400 45.230499 19.153999 # CH4 
30 1 1 0.000000 13.056400 45.230499 21.282000 # CH4 
31 1 1 0.000000 13.056400 45.230499 23.410999 # CH4 
32 1 1 0.000000 13.056400 45.230499 25.539000 # CH4 
33 1 1 0.000000 13.056400 45.230499 0.000000 # CH4 
34 1 1 0.000000 13.056400 45.230499 2.128000 # CH4 
35 1 1 0.000000 13.056400 45.230499 4.256000 # CH4 
36 1 1 0.000000 13.056400 45.230499 6.385000 # CH4 
37 1 1 0.000000 13.056400 45.230499 8.513000 # CH4 
38 1 1 0.000000 13.056400 45.230499 10.641000 # CH4 
39 1 1 0.000000 13.056400 45.230499 12.769000 # CH4 
40 1 1 0.000000 13.056400 22.614500 14.898000 # CH4 
41 1 1 0.000000 13.056400 22.614500 17.026001 # CH4 
42 1 1 0.000000 13.056400 22.614500 19.153999 # CH4 
43 1 1 0.000000 13.056400 22.614500 21.282000 # CH4 
44 1 1 0.000000 13.056400 22.614500 23.410999 # CH4 
45 1 1 0.000000 13.056400 22.614500 25.539000 # CH4 
46 1 1 0.000000 13.056400 22.614500 0.000000 # CH4 
47 1 1 0.000000 13.056400 22.614500 2.128000 # CH4 
48 1 1 0.000000 13.056400 22.614500 4.256000 # CH4 
49 1 1 0.000000 13.056400 22.614500 6.385000 # CH4 
50 1 7 0.000000 5.314000 7.966000 21.684460 # Mg LIG
51 2 7 0.000000 18.371000 30.580999 21.684460 # Mg LIG
52 3 7 0.000000 4.242000 6.491000 19.378460 # Mg LIG
53 4 7 0.000000 17.299000 29.106001 19.378460 # Mg LIG
54 1 7 0.000000 3.501000 8.158000 23.990459 # Mg LIG
55 2 7 0.000000 16.558001 30.773001 23.990459 # Mg LIG
56 5 7 0.000000 7.743000 14.649000 19.815460 # Mg LIG
57 6 7 0.000000 20.799000 37.264000 19.815460 # Mg LIG
58 7 7 0.000000 8.815000 16.124001 22.120461 # Mg LIG
59 8 7 0.000000 21.872000 38.738998 22.120461 # Mg LIG
60 3 7 0.000000 9.556000 14.457000 17.509460 # Mg LIG
61 4 7 0.000000 22.613001 37.071999 17.509460 # Mg LIG
62 9 7 0.000000 8.815000 31.200001 19.815460 # Mg LIG
63 10 7 0.000000 21.872000 8.585000 19.815460 # Mg LIG
64 11 7 0.000000 9.556000 29.534000 22.120461 # Mg LIG
65 12 7 0.000000 22.613001 6.919000 22.120461 # Mg LIG
66 5 7 0.000000 4.242000 21.568001 23.990459 # Mg LIG
67 13 7 0.000000 17.299000 44.182999 23.990459 # Mg LIG
68 14 7 0.000000 8.815000 1.047000 17.509460 # Mg LIG
69 8 7 0.000000 21.872000 23.662001 17.509460 # Mg LIG
70 9 7 0.000000 5.314000 38.118999 23.990459 # Mg LIG
71 10 7 0.000000 18.371000 15.504000 23.990459 # Mg LIG
72 15 7 0.000000 7.743000 44.801998 22.120461 # Mg LIG
73 16 7 0.000000 20.799000 22.187000 22.120461 # Mg LIG
74 17 7 0.000000 9.556000 44.611000 19.815460 # Mg LIG
75 18 7 0.000000 22.613001 21.996000 19.815460 # Mg LIG
76 19 7 0.000000 3.501000 38.311001 19.378460 # Mg LIG
77 20 7 0.000000 16.558001 15.696000 19.378460 # Mg LIG
78 21 7 0.000000 4.242000 36.645000 21.684460 # Mg LIG
79 22 7 0.000000 17.299000 14.030000 21.684460 # Mg LIG
80 23 7 0.000000 5.314000 23.042999 19.378460 # Mg LIG
81 24 7 0.000000 18.371000 0.428000 19.378460 # Mg LIG
82 25 7 0.000000 3.501000 23.233999 21.684460 # Mg LIG
83 26 7 0.000000 16.558001 0.619000 21.684460 # Mg LIG
84 13 7 0.000000 7.743000 29.726000 17.509460 # Mg LIG
85 14 7 0.000000 20.799000 7.111000 17.509460 # Mg LIG
86 3 2 0.000000 5.704000 9.170000 19.055460 # Ca LIG
87 4 2 0.000000 18.761000 31.785000 19.055460 # Ca LIG
88 27 3 0.000000 6.098000 10.247000 18.115459 # Cb LIG
89 28 3 0.000000 19.155001 32.862000 18.115459 # Cb LIG
90 27 5 0.000000 6.932000 11.258000 18.610460 # Cd LIG
91 28 5 0.000000 19.989000 33.873001 18.610460 # Cd LIG
92 27 6 0.000000 7.248000 11.206000 19.650459 # H LIG
93 28 6 0.000000 20.305000 33.820999 19.650459 # H LIG
94 3 9 0.000000 6.149000 9.140000 20.245461 # Ob LIG
95 4 9 0.000000 19.205999 31.754999 20.245461 # Ob LIG
96 3 8 0.000000 4.881000 8.269000 18.627460 # Oa LIG
97 4 8 0.000000 17.938000 30.884001 18.627460 # Oa LIG
98 27 10 0.000000 8.183000 13.257000 18.410460 # Oc LIG
99 28 10 0.000000 21.240000 35.872002 18.410460 # Oc LIG
100 1 8 0.000000 4.721000 6.715000 23.238461 # Oa LIG
101 2 8 0.000000 17.777000 29.330000 23.238461 # Oa LIG
102 1 8 0.000000 3.455000 7.631000 20.933460 # Oa LIG
103 2 8 0.000000 16.511000 30.246000 20.933460 # Oa LIG
104 29 10 0.000000 4.874000 9.358000 23.088459 # Oc LIG
105 30 10 0.000000 17.930000 31.973000 23.088459 # Oc LIG
106 31 10 0.000000 5.668000 6.177000 20.783461 # Oc LIG
107 32 10 0.000000 18.725000 28.792000 20.783461 # Oc LIG
108 29 4 0.000000 5.672000 10.284000 23.664459 # Cc LIG
109 30 4 0.000000 18.729000 32.898998 23.664459 # Cc LIG
110 7 2 0.000000 7.353000 13.445000 22.444460 # Ca LIG
111 8 2 0.000000 20.409000 36.060001 22.444460 # Ca LIG
112 29 3 0.000000 6.959000 12.368000 23.384460 # Cb LIG
113 30 3 0.000000 20.016001 34.983002 23.384460 # Cb LIG
114 27 4 0.000000 7.384000 12.331000 17.835461 # Cc LIG
115 28 4 0.000000 20.441000 34.945999 17.835461 # Cc LIG
116 29 5 0.000000 6.125000 11.357000 22.889460 # Cd LIG
117 30 5 0.000000 19.181000 33.972000 22.889460 # Cd LIG
118 29 6 0.000000 5.809000 11.409000 21.849461 # H LIG
119 30 6 0.000000 18.865999 34.023998 21.849461 # H LIG
120 7 9 0.000000 6.908000 13.475000 21.254459 # Ob LIG
121 8 9 0.000000 19.965000 36.090000 21.254459 # Ob LIG
122 7 8 0.000000 8.175000 14.346000 22.871460 # Oa LIG
123 8 8 0.000000 21.232000 36.960999 22.871460 # Oa LIG
124 3 8 0.000000 8.336000 15.900000 18.260460 # Oa LIG
125 4 8 0.000000 21.393000 38.514999 18.260460 # Oa LIG
126 5 8 0.000000 9.602000 14.984000 20.566460 # Oa LIG
127 6 8 0.000000 22.659000 37.598999 20.566460 # Oa LIG
128 32 10 0.000000 7.389000 16.438000 20.716461 # Oc LIG
129 32 10 0.000000 20.445999 39.053001 20.716461 # Oc LIG
130 13 8 0.000000 9.602000 30.059999 18.260460 # Oa LIG
131 14 8 0.000000 22.659000 7.445000 18.260460 # Oa LIG
132 11 8 0.000000 8.336000 30.976999 22.871460 # Oa LIG
133 12 8 0.000000 21.393000 8.362000 22.871460 # Oa LIG
134 25 8 0.000000 4.721000 21.791000 20.933460 # Oa LIG
135 32 8 0.000000 17.777000 44.405998 20.933460 # Oa LIG
136 32 10 0.000000 5.668000 21.254000 18.477459 # Oc LIG
137 32 10 0.000000 18.725000 43.868999 18.477459 # Oc LIG
138 32 8 0.000000 8.336000 0.824000 20.566460 # Oa LIG
139 18 8 0.000000 21.393000 23.438999 20.566460 # Oa LIG
140 32 10 0.000000 7.389000 1.361000 23.021460 # Oc LIG
141 32 10 0.000000 20.445999 23.976000 23.021460 # Oc LIG
142 32 10 0.000000 4.874000 39.512001 18.477459 # Oc LIG
143 32 10 0.000000 17.930000 16.896999 18.477459 # Oc LIG
144 21 2 0.000000 5.704000 39.324001 21.360460 # Ca LIG
145 22 2 0.000000 18.761000 16.709000 21.360460 # Ca LIG
146 32 3 0.000000 6.098000 40.401001 20.421459 # Cb LIG
147 32 3 0.000000 19.155001 17.785999 20.421459 # Cb LIG
148 32 4 0.000000 5.672000 40.438000 19.053459 # Cc LIG
149 32 4 0.000000 18.729000 17.823000 19.053459 # Cc LIG
150 32 5 0.000000 6.932000 41.410999 20.916460 # Cd LIG
151 32 5 0.000000 19.989000 18.796000 20.916460 # Cd LIG
152 32 6 0.000000 7.248000 41.359001 21.955460 # H LIG
153 32 6 0.000000 20.305000 18.743999 21.955460 # H LIG
154 21 9 0.000000 6.149000 39.292999 22.550461 # Ob LIG
155 22 9 0.000000 19.205999 16.677999 22.550461 # Ob LIG
156 21 8 0.000000 4.882000 38.423000 20.933460 # Oa LIG
157 22 8 0.000000 17.938000 15.808000 20.933460 # Oa LIG
158 32 3 0.000000 6.959000 42.521000 18.773460 # Cb LIG
159 32 3 0.000000 20.016001 19.906000 18.773460 # Cb LIG
160 32 4 0.000000 7.384000 42.484001 20.140461 # Cc LIG
161 32 4 0.000000 20.441000 19.868999 20.140461 # Cc LIG
162 32 5 0.000000 6.125000 41.509998 18.277460 # Cd LIG
163 32 5 0.000000 19.181000 18.895000 18.277460 # Cd LIG
164 32 8 0.000000 8.175000 44.499001 18.260460 # Oa LIG
165 8 8 0.000000 21.232000 21.884001 18.260460 # Oa LIG
166 32 10 0.000000 8.183000 43.410000 20.716461 # Oc LIG
167 32 10 0.000000 21.240000 20.795000 20.716461 # Oc LIG
168 32 10 0.000000 5.668000 36.330002 23.088459 # Oc LIG
169 32 10 0.000000 18.725000 13.715000 23.088459 # Oc LIG
170 32 2 0.000000 7.353000 43.598000 17.833460 # Ca LIG
171 8 2 0.000000 20.409000 20.983000 17.833460 # Ca LIG
172 33 9 0.000000 6.908000 43.627998 23.559460 # Ob LIG
173 34 9 0.000000 19.965000 21.013000 23.559460 # Ob LIG
174 15 8 0.000000 9.602000 45.137001 22.871460 # Oa LIG
175 16 8 0.000000 22.659000 22.521999 22.871460 # Oa LIG
176 19 8 0.000000 4.721000 36.868000 18.627460 # Oa LIG
177 20 8 0.000000 17.778000 14.253000 18.627460 # Oa LIG
178 9 8 0.000000 3.455000 37.785000 23.238461 # Oa LIG
179 10 8 0.000000 16.511000 15.170000 23.238461 # Oa LIG
180 32 10 0.000000 2.515000 22.156000 23.088459 # Oc LIG
181 32 10 0.000000 15.572000 44.771000 23.088459 # Oc LIG
182 32 4 0.000000 1.314000 22.385000 23.664459 # Cc LIG
183 32 4 0.000000 14.371000 45.000000 23.664459 # Cc LIG
184 15 2 0.000000 10.794000 44.875000 22.444460 # Ca LIG
185 16 2 0.000000 23.851000 22.260000 22.444460 # Ca LIG
186 32 3 0.000000 11.924000 45.073002 23.384460 # Cb LIG
187 16 3 0.000000 24.980000 22.458000 23.384460 # Cb LIG
188 32 5 0.000000 0.159000 22.240999 22.889460 # Cd LIG
189 32 5 0.000000 13.216000 44.855999 22.889460 # Cd LIG
190 32 6 0.000000 0.271000 21.941000 21.849461 # H LIG
191 32 6 0.000000 13.328000 44.556000 21.849461 # H LIG
192 15 9 0.000000 10.990000 44.474998 21.254459 # Ob LIG
193 16 9 0.000000 24.047001 21.860001 21.254459 # Ob LIG
194 32 4 0.000000 6.070000 35.174999 23.664459 # Cc LIG
195 32 4 0.000000 19.127001 12.560000 23.664459 # Cc LIG
196 11 2 0.000000 7.967000 32.139999 22.444460 # Ca LIG
197 12 2 0.000000 21.024000 9.525000 22.444460 # Ca LIG
198 32 3 0.000000 7.231000 33.020000 23.384460 # Cb LIG
199 32 3 0.000000 20.288000 10.405000 23.384460 # Cb LIG
200 32 5 0.000000 6.773000 34.248001 22.889460 # Cd LIG
201 32 5 0.000000 19.830000 11.633000 22.889460 # Cd LIG
202 32 6 0.000000 6.977000 34.494999 21.849461 # H LIG
203 32 6 0.000000 20.033001 11.880000 21.849461 # H LIG
204 11 9 0.000000 8.216000 32.509998 21.254459 # Ob LIG
205 12 9 0.000000 21.273001 9.895000 21.254459 # Ob LIG
206 32 10 0.000000 10.541000 30.612000 20.716461 # Oc LIG
207 32 10 0.000000 23.598000 7.997000 20.716461 # Oc LIG
208 19 2 0.000000 5.090000 35.705002 19.055460 # Ca LIG
209 20 2 0.000000 18.146000 13.090000 19.055460 # Ca LIG
210 32 3 0.000000 5.826000 34.825001 18.115459 # Cb LIG
211 32 3 0.000000 18.882000 12.210000 18.115459 # Cb LIG
212 32 5 0.000000 6.284000 33.597000 18.610460 # Cd LIG
213 32 5 0.000000 19.341000 10.982000 18.610460 # Cd LIG
214 32 6 0.000000 6.080000 33.349998 19.650459 # H LIG
215 32 6 0.000000 19.136999 10.735000 19.650459 # H LIG
216 19 9 0.000000 4.841000 35.334999 20.245461 # Ob LIG
217 20 9 0.000000 17.898001 12.720000 20.245461 # Ob LIG
218 32 10 0.000000 2.515000 37.233002 20.783461 # Oc LIG
219 32 10 0.000000 15.572000 14.618000 20.783461 # Oc LIG
220 35 9 0.000000 2.067000 38.446999 17.939461 # Ob LIG
221 36 9 0.000000 15.124000 15.832000 17.939461 # Ob LIG
222 9 2 0.000000 2.263000 38.046001 23.666460 # Ca LIG
223 10 2 0.000000 15.320000 15.431000 23.666460 # Ca LIG
224 32 3 0.000000 1.133000 37.848999 22.726460 # Cb LIG
225 32 3 0.000000 14.190000 15.234000 22.726460 # Cb LIG
226 32 4 0.000000 1.314000 37.462002 21.358459 # Cc LIG
227 32 4 0.000000 14.371000 14.847000 21.358459 # Cc LIG
228 32 5 0.000000 12.898000 15.451000 23.221460 # Cd LIG
229 32 5 0.000000 25.954000 38.066002 23.221460 # Cd LIG
230 37 6 0.000000 12.785000 15.751000 17.344460 # H LIG
231 38 6 0.000000 25.841999 38.366001 17.344460 # H LIG
232 5 2 0.000000 10.794000 14.722000 20.138460 # Ca LIG
233 6 2 0.000000 23.851000 37.337002 20.138460 # Ca LIG
234 32 3 0.000000 11.924000 14.919000 21.078461 # Cb LIG
235 32 3 0.000000 24.980000 37.534000 21.078461 # Cb LIG
236 32 4 0.000000 11.743000 15.306000 22.446461 # Cc LIG
237 32 4 0.000000 24.799000 37.921001 22.446461 # Cc LIG
238 32 5 0.000000 0.159000 37.317001 20.583460 # Cd LIG
239 32 5 0.000000 13.216000 14.702000 20.583460 # Cd LIG
240 32 6 0.000000 0.272000 37.016998 19.543461 # H LIG
241 32 6 0.000000 13.328000 14.402000 19.543461 # H LIG
242 5 9 0.000000 10.990000 14.322000 18.948460 # Ob LIG
243 6 9 0.000000 24.047001 36.937000 18.948460 # Ob LIG
244 32 10 0.000000 10.541000 15.535000 23.021460 # Oc LIG
245 32 10 0.000000 23.598000 38.150002 23.021460 # Oc LIG
246 39 9 0.000000 4.841000 5.182000 17.939461 # Ob LIG
247 40 9 0.000000 17.898001 27.797001 17.939461 # Ob LIG
248 32 10 0.000000 2.515000 7.080000 18.477459 # Oc LIG
249 32 10 0.000000 15.572000 29.695000 18.477459 # Oc LIG
250 1 2 0.000000 5.090000 5.552000 23.666460 # Ca LIG
251 2 2 0.000000 18.146000 28.167000 23.666460 # Ca LIG
252 32 3 0.000000 5.826000 4.672000 22.726460 # Cb LIG
253 32 3 0.000000 18.882000 27.287001 22.726460 # Cb LIG
254 31 4 0.000000 6.070000 5.022000 21.358459 # Cc LIG
255 32 4 0.000000 19.127001 27.636999 21.358459 # Cc LIG
256 32 5 0.000000 6.284000 3.444000 23.221460 # Cd LIG
257 32 5 0.000000 19.340000 26.059000 23.221460 # Cd LIG
258 41 6 0.000000 6.080000 3.197000 17.344460 # H LIG
259 42 6 0.000000 19.136999 25.812000 17.344460 # H LIG
260 32 2 0.000000 7.967000 1.987000 20.138460 # Ca LIG
261 18 2 0.000000 21.024000 24.601999 20.138460 # Ca LIG
262 31 3 0.000000 7.231000 2.866000 21.078461 # Cb LIG
263 32 3 0.000000 20.288000 25.481001 21.078461 # Cb LIG
264 32 4 0.000000 6.987000 2.516000 22.446461 # Cc LIG
265 32 4 0.000000 20.042999 25.131001 22.446461 # Cc LIG
266 31 5 0.000000 6.773000 4.094000 20.583460 # Cd LIG
267 32 5 0.000000 19.830000 26.709000 20.583460 # Cd LIG
268 31 6 0.000000 6.977000 4.341000 19.543461 # H LIG
269 32 6 0.000000 20.033001 26.955999 19.543461 # H LIG
270 32 9 0.000000 8.216000 2.357000 18.948460 # Ob LIG
271 18 9 0.000000 21.273001 24.972000 18.948460 # Ob LIG
272 1 2 0.000000 2.263000 7.893000 21.360460 # Ca LIG
273 2 2 0.000000 15.320000 30.507999 21.360460 # Ca LIG
274 32 3 0.000000 1.133000 7.696000 20.421459 # Cb LIG
275 32 3 0.000000 14.190000 30.311001 20.421459 # Cb LIG
276 32 4 0.000000 1.314000 7.309000 19.053459 # Cc LIG
277 32 4 0.000000 14.371000 29.924000 19.053459 # Cc LIG
278 32 5 0.000000 12.898000 30.528000 20.916460 # Cd LIG
279 32 5 0.000000 25.954000 7.913000 20.916460 # Cd LIG
280 32 6 0.000000 12.785000 30.827999 21.955460 # H LIG
281 32 6 0.000000 25.841999 8.213000 21.955460 # H LIG
282 1 9 0.000000 2.067000 8.293000 22.550461 # Ob LIG
283 2 9 0.000000 15.124000 30.908001 22.550461 # Ob LIG
284 32 3 0.000000 11.924000 29.996000 18.773460 # Cb LIG
285 32 3 0.000000 24.980000 7.381000 18.773460 # Cb LIG
286 32 4 0.000000 11.743000 30.382999 20.140461 # Cc LIG
287 32 4 0.000000 24.799000 7.768000 20.140461 # Cc LIG
288 32 5 0.000000 0.159000 7.164000 18.277460 # Cd LIG
289 32 5 0.000000 13.216000 29.778999 18.277460 # Cd LIG
290 13 2 0.000000 10.794000 29.799000 17.833460 # Ca LIG
291 14 2 0.000000 23.851000 7.184000 17.833460 # Ca LIG
292 43 9 0.000000 10.990000 29.398001 23.559460 # Ob LIG
293 44 9 0.000000 24.047001 6.783000 23.559460 # Ob LIG
294 25 2 0.000000 5.090000 20.628000 21.360460 # Ca LIG
295 32 2 0.000000 18.146000 43.243000 21.360460 # Ca LIG
296 32 3 0.000000 5.826000 19.749001 20.421459 # Cb LIG
297 32 3 0.000000 18.882000 42.363998 20.421459 # Cb LIG
298 32 4 0.000000 6.070000 20.099001 19.053459 # Cc LIG
299 32 4 0.000000 19.127001 42.714001 19.053459 # Cc LIG
300 32 5 0.000000 6.284000 18.521000 20.916460 # Cd LIG
301 32 5 0.000000 19.341000 41.136002 20.916460 # Cd LIG
302 32 6 0.000000 6.080000 18.274000 21.955460 # H LIG
303 32 6 0.000000 19.136999 40.889000 21.955460 # H LIG
304 25 9 0.000000 4.841000 20.257999 22.550461 # Ob LIG
305 32 9 0.000000 17.898001 42.873001 22.550461 # Ob LIG
306 32 3 0.000000 7.231000 17.943001 18.773460 # Cb LIG
307 32 3 0.000000 20.288000 40.557999 18.773460 # Cb LIG
308 32 4 0.000000 6.987000 17.593000 20.140461 # Cc LIG
309 32 4 0.000000 20.042999 40.208000 20.140461 # Cc LIG
310 32 5 0.000000 6.773000 19.171000 18.277460 # Cd LIG
311 32 5 0.000000 19.830000 41.785999 18.277460 # Cd LIG
312 3 2 0.000000 7.967000 17.063000 17.833460 # Ca LIG
313 4 2 0.000000 21.024000 39.678001 17.833460 # Ca LIG
314 45 9 0.000000 8.216000 17.433001 23.559460 # Ob LIG
315 46 9 0.000000 21.273001 40.048000 23.559460 # Ob LIG
316 47 9 0.000000 6.149000 24.216999 17.939461 # Ob LIG
317 48 9 0.000000 19.205999 1.602000 17.939461 # Ob LIG
318 23 8 0.000000 3.455000 22.708000 18.627460 # Oa LIG
319 24 8 0.000000 16.511000 0.093000 18.627460 # Oa LIG
320 32 10 0.000000 4.874000 24.434999 20.783461 # Oc LIG
321 32 10 0.000000 17.930000 1.820000 20.783461 # Oc LIG
322 5 2 0.000000 5.704000 24.247000 23.666460 # Ca LIG
323 32 2 0.000000 18.761000 1.632000 23.666460 # Ca LIG
324 32 3 0.000000 6.098000 25.323999 22.726460 # Cb LIG
325 32 3 0.000000 19.155001 2.709000 22.726460 # Cb LIG
326 32 4 0.000000 5.672000 25.361000 21.358459 # Cc LIG
327 32 4 0.000000 18.729000 2.746000 21.358459 # Cc LIG
328 32 5 0.000000 6.932000 26.334999 23.221460 # Cd LIG
329 32 5 0.000000 19.989000 3.720000 23.221460 # Cd LIG
330 49 6 0.000000 7.248000 26.282000 17.344460 # H LIG
331 50 6 0.000000 20.305000 3.667000 17.344460 # H LIG
332 5 8 0.000000 4.881000 23.346001 23.238461 # Oa LIG
333 32 8 0.000000 17.938000 0.731000 23.238461 # Oa LIG
334 9 2 0.000000 7.353000 28.521000 20.138460 # Ca LIG
335 10 2 0.000000 20.409000 5.906000 20.138460 # Ca LIG
336 32 3 0.000000 6.959000 27.444000 21.078461 # Cb LIG
337 32 3 0.000000 20.016001 4.829000 21.078461 # Cb LIG
338 32 4 0.000000 7.384000 27.407000 22.446461 # Cc LIG
339 32 4 0.000000 20.441000 4.792000 22.446461 # Cc LIG
340 32 5 0.000000 6.125000 26.434000 20.583460 # Cd LIG
341 32 5 0.000000 19.181000 3.819000 20.583460 # Cd LIG
342 32 6 0.000000 5.809000 26.486000 19.543461 # H LIG
343 32 6 0.000000 18.865999 3.871000 19.543461 # H LIG
344 9 9 0.000000 6.908000 28.552000 18.948460 # Ob LIG
345 10 9 0.000000 19.965000 5.937000 18.948460 # Ob LIG
346 9 8 0.000000 8.175000 29.422001 20.566460 # Oa LIG
347 10 8 0.000000 21.232000 6.807000 20.566460 # Oa LIG
348 32 10 0.000000 8.183000 28.333000 23.021460 # Oc LIG
349 32 10 0.000000 21.240000 5.718000 23.021460 # Oc LIG
350 23 2 0.000000 2.263000 22.969999 19.055460 # Ca LIG
351 24 2 0.000000 15.320000 0.355000 19.055460 # Ca LIG
352 23 3 0.000000 1.133000 22.771999 18.115459 # Cb LIG
353 32 3 0.000000 14.190000 0.157000 18.115459 # Cb LIG
354 32 5 0.000000 12.898000 0.374000 18.610460 # Cd LIG
355 32 5 0.000000 25.954000 22.989000 18.610460 # Cd LIG
356 32 6 0.000000 12.785000 0.674000 19.650459 # H LIG
357 32 6 0.000000 25.841999 23.289000 19.650459 # H LIG
358 23 9 0.000000 2.067000 23.370001 20.245461 # Ob LIG
359 24 9 0.000000 15.124000 0.755000 20.245461 # Ob LIG
360 32 10 0.000000 7.389000 31.514999 18.410460 # Oc LIG
361 32 10 0.000000 20.445999 8.900000 18.410460 # Oc LIG
362 51 6 0.000000 5.809000 41.563000 24.154461 # H LIG
363 52 6 0.000000 18.865999 18.948000 24.154461 # H LIG
364 32 10 0.000000 10.541000 0.459000 18.410460 # Oc LIG
365 32 10 0.000000 23.598000 23.073999 18.410460 # Oc LIG
366 32 4 0.000000 11.743000 0.230000 17.835461 # Cc LIG
367 32 4 0.000000 24.799999 22.844999 17.835461 # Cc LIG
368 32 4 0.000000 6.986000 32.669998 17.835461 # Cc LIG
369 32 4 0.000000 20.042999 10.055000 17.835461 # Cc LIG
370 53 6 0.000000 0.271000 6.864000 24.154461 # H LIG
371 54 6 0.000000 13.328000 29.479000 24.154461 # H LIG
372 55 6 0.000000 6.977000 19.417999 24.154461 # H LIG
373 56 6 0.000000 20.033001 42.033001 24.154461 # H LIG
374 1 7 0.000000 5.314000 7.966000 0.934500 # Mg LIG
375 2 7 0.000000 18.371000 30.580999 0.934500 # Mg LIG
376 3 7 0.000000 4.242000 6.491000 26.295460 # Mg LIG
377 4 7 0.000000 17.299000 29.106001 26.295460 # Mg LIG
378 1 7 0.000000 3.501000 8.158000 3.240500 # Mg LIG
379 2 7 0.000000 16.558001 30.773001 3.240500 # Mg LIG
380 5 7 0.000000 7.743000 14.649000 26.732460 # Mg LIG
381 6 7 0.000000 20.799000 37.264000 26.732460 # Mg LIG
382 7 7 0.000000 8.815000 16.124001 1.370500 # Mg LIG
383 8 7 0.000000 21.872000 38.738998 1.370500 # Mg LIG
384 3 7 0.000000 9.556000 14.457000 24.426460 # Mg LIG
385 4 7 0.000000 22.613001 37.071999 24.426460 # Mg LIG
386 9 7 0.000000 8.815000 31.200001 26.732460 # Mg LIG
387 10 7 0.000000 21.872000 8.585000 26.732460 # Mg LIG
388 11 7 0.000000 9.556000 29.534000 1.370500 # Mg LIG
389 12 7 0.000000 22.613001 6.919000 1.370500 # Mg LIG
390 5 7 0.000000 4.242000 21.568001 3.240500 # Mg LIG
391 13 7 0.000000 17.299000 44.182999 3.240500 # Mg LIG
392 14 7 0.000000 8.815000 1.047000 24.426460 # Mg LIG
393 8 7 0.000000 21.872000 23.662001 24.426460 # Mg LIG
394 9 7 0.000000 5.314000 38.118999 3.240500 # Mg LIG
395 10 7 0.000000 18.371000 15.504000 3.240500 # Mg LIG
396 15 7 0.000000 7.743000 44.801998 1.370500 # Mg LIG
397 16 7 0.000000 20.799000 22.187000 1.370500 # Mg LIG
398 17 7 0.000000 9.556000 44.611000 26.732460 # Mg LIG
399 18 7 0.000000 22.613001 21.996000 26.732460 # Mg LIG
400 19 7 0.000000 3.501000 38.311001 26.295460 # Mg LIG
401 20 7 0.000000 16.558001 15.696000 26.295460 # Mg LIG
402 21 7 0.000000 4.242000 36.645000 0.934500 # Mg LIG
403 22 7 0.000000 17.299000 14.030000 0.934500 # Mg LIG
404 23 7 0.000000 5.314000 23.042999 26.295460 # Mg LIG
405 24 7 0.000000 18.371000 0.428000 26.295460 # Mg LIG
406 25 7 0.000000 3.501000 23.233999 0.934500 # Mg LIG
407 26 7 0.000000 16.558001 0.619000 0.934500 # Mg LIG
408 13 7 0.000000 7.743000 29.726000 24.426460 # Mg LIG
409 14 7 0.000000 20.799000 7.111000 24.426460 # Mg LIG
410 3 2 0.000000 5.704000 9.170000 25.972460 # Ca LIG
411 4 2 0.000000 18.761000 31.785000 25.972460 # Ca LIG
412 27 3 0.000000 6.098000 10.247000 25.032459 # Cb LIG
413 28 3 0.000000 19.155001 32.862000 25.032459 # Cb LIG
414 27 5 0.000000 6.932000 11.258000 25.527460 # Cd LIG
415 28 5 0.000000 19.989000 33.873001 25.527460 # Cd LIG
416 27 6 0.000000 7.248000 11.206000 26.567459 # H LIG
417 28 6 0.000000 20.305000 33.820999 26.567459 # H LIG
418 3 9 0.000000 6.149000 9.140000 27.162460 # Ob LIG
419 4 9 0.000000 19.205999 31.754999 27.162460 # Ob LIG
420 3 8 0.000000 4.881000 8.269000 25.544460 # Oa LIG
421 4 8 0.000000 17.938000 30.884001 25.544460 # Oa LIG
422 27 10 0.000000 8.183000 13.257000 25.327459 # Oc LIG
423 28 10 0.000000 21.240000 35.872002 25.327459 # Oc LIG
424 1 8 0.000000 4.721000 6.715000 2.488500 # Oa LIG
425 2 8 0.000000 17.777000 29.330000 2.488500 # Oa LIG
426 1 8 0.000000 3.455000 7.631000 0.183500 # Oa LIG
427 2 8 0.000000 16.511000 30.246000 0.183500 # Oa LIG
428 29 10 0.000000 4.874000 9.358000 2.338500 # Oc LIG
429 30 10 0.000000 17.930000 31.973000 2.338500 # Oc LIG
430 31 10 0.000000 5.668000 6.177000 0.033500 # Oc LIG
431 32 10 0.000000 18.725000 28.792000 0.033500 # Oc LIG
432 29 4 0.000000 5.672000 10.284000 2.914500 # Cc LIG
433 30 4 0.000000 18.729000 32.898998 2.914500 # Cc LIG
434 7 2 0.000000 7.353000 13.445000 1.694500 # Ca LIG
435 8 2 0.000000 20.409000 36.060001 1.694500 # Ca LIG
436 29 3 0.000000 6.959000 12.368000 2.634500 # Cb LIG
437 30 3 0.000000 20.016001 34.983002 2.634500 # Cb LIG
438 27 4 0.000000 7.384000 12.331000 24.752460 # Cc LIG
439 28 4 0.000000 20.441000 34.945999 24.752460 # Cc LIG
440 29 5 0.000000 6.125000 11.357000 2.139500 # Cd LIG
441 30 5 0.000000 19.181000 33.972000 2.139500 # Cd LIG
442 29 6 0.000000 5.809000 11.409000 1.099500 # H LIG
443 30 6 0.000000 18.865999 34.023998 1.099500 # H LIG
444 7 9 0.000000 6.908000 13.475000 0.504500 # Ob LIG
445 8 9 0.000000 19.965000 36.090000 0.504500 # Ob LIG
446 7 8 0.000000 8.175000 14.346000 2.121500 # Oa LIG
447 8 8 0.000000 21.232000 36.960999 2.121500 # Oa LIG
448 3 8 0.000000 8.336000 15.900000 25.177460 # Oa LIG
449 4 8 0.000000 21.393000 38.514999 25.177460 # Oa LIG
450 5 8 0.000000 9.602000 14.984000 27.483459 # Oa LIG
451 6 8 0.000000 22.659000 37.598999 27.483459 # Oa LIG
452 32 10 0.000000 7.389000 16.438000 27.633459 # Oc LIG
453 32 10 0.000000 20.445999 39.053001 27.633459 # Oc LIG
454 13 8 0.000000 9.602000 30.059999 25.177460 # Oa LIG
455 14 8 0.000000 22.659000 7.445000 25.177460 # Oa LIG
456 11 8 0.000000 8.336000 30.976999 2.121500 # Oa LIG
457 12 8 0.000000 21.393000 8.362000 2.121500 # Oa LIG
458 25 8 0.000000 4.721000 21.791000 0.183500 # Oa LIG
459 32 8 0.000000 17.777000 44.405998 0.183500 # Oa LIG
460 32 10 0.000000 5.668000 21.254000 25.394459 # Oc LIG
461 32 10 0.000000 18.725000 43.868999 25.394459 # Oc LIG
462 32 8 0.000000 8.336000 0.824000 27.483459 # Oa LIG
463 18 8 0.000000 21.393000 23.438999 27.483459 # Oa LIG
464 32 10 0.000000 7.389000 1.361000 2.271500 # Oc LIG
465 32 10 0.000000 20.445999 23.976000 2.271500 # Oc LIG
466 32 10 0.000000 4.874000 39.512001 25.394459 # Oc LIG
467 32 10 0.000000 17.930000 16.896999 25.394459 # Oc LIG
468 21 2 0.000000 5.704000 39.324001 0.610500 # Ca LIG
469 22 2 0.000000 18.761000 16.709000 0.610500 # Ca LIG
470 32 3 0.000000 6.098000 40.401001 27.338459 # Cb LIG
471 32 3 0.000000 19.155001 17.785999 27.338459 # Cb LIG
472 32 4 0.000000 5.672000 40.438000 25.970459 # Cc LIG
473 32 4 0.000000 18.729000 17.823000 25.970459 # Cc LIG
474 32 5 0.000000 6.932000 41.410999 0.166500 # Cd LIG
475 32 5 0.000000 19.989000 18.796000 0.166500 # Cd LIG
476 32 6 0.000000 7.248000 41.359001 1.205500 # H LIG
477 32 6 0.000000 20.305000 18.743999 1.205500 # H LIG
478 21 9 0.000000 6.149000 39.292999 1.800500 # Ob LIG
479 22 9 0.000000 19.205999 16.677999 1.800500 # Ob LIG
480 21 8 0.000000 4.882000 38.423000 0.183500 # Oa LIG
481 22 8 0.000000 17.938000 15.808000 0.183500 # Oa LIG
482 32 3 0.000000 6.959000 42.521000 25.690460 # Cb LIG
483 32 3 0.000000 20.016001 19.906000 25.690460 # Cb LIG
484 32 4 0.000000 7.384000 42.484001 27.057461 # Cc LIG
485 32 4 0.000000 20.441000 19.868999 27.057461 # Cc LIG
486 32 5 0.000000 6.125000 41.509998 25.194460 # Cd LIG
487 32 5 0.000000 19.181000 18.895000 25.194460 # Cd LIG
488 32 8 0.000000 8.175000 44.499001 25.177460 # Oa LIG
489 8 8 0.000000 21.232000 21.884001 25.177460 # Oa LIG
490 32 10 0.000000 8.183000 43.410000 27.633459 # Oc LIG
491 32 10 0.000000 21.240000 20.795000 27.633459 # Oc LIG
492 32 10 0.000000 5.668000 36.330002 2.338500 # Oc LIG
493 32 10 0.000000 18.725000 13.715000 2.338500 # Oc LIG
494 32 2 0.000000 7.353000 43.598000 24.750460 # Ca LIG
495 8 2 0.000000 20.409000 20.983000 24.750460 # Ca LIG
496 33 9 0.000000 6.908000 43.627998 2.809500 # Ob LIG
497 34 9 0.000000 19.965000 21.013000 2.809500 # Ob LIG
498 15 8 0.000000 9.602000 45.137001 2.121500 # Oa LIG
499 16 8 0.000000 22.659000 22.521999 2.121500 # Oa LIG
500 19 8 0.000000 4.721000 36.868000 25.544460 # Oa LIG
501 20 8 0.000000 17.778000 14.253000 25.544460 # Oa LIG
502 9 8 0.000000 3.455000 37.785000 2.488500 # Oa LIG
503 10 8 0.000000 16.511000 15.170000 2.488500 # Oa LIG
504 32 10 0.000000 2.515000 22.156000 2.338500 # Oc LIG
505 32 10 0.000000 15.572000 44.771000 2.338500 # Oc LIG
506 32 4 0.000000 1.314000 22.385000 2.914500 # Cc LIG
507 32 4 0.000000 14.371000 45.000000 2.914500 # Cc LIG
508 15 2 0.000000 10.794000 44.875000 1.694500 # Ca LIG
509 16 2 0.000000 23.851000 22.260000 1.694500 # Ca LIG
510 32 3 0.000000 11.924000 45.073002 2.634500 # Cb LIG
511 16 3 0.000000 24.980000 22.458000 2.634500 # Cb LIG
512 32 5 0.000000 0.159000 22.240999 2.139500 # Cd LIG
513 32 5 0.000000 13.216000 44.855999 2.139500 # Cd LIG
514 32 6 0.000000 0.271000 21.941000 1.099500 # H LIG
515 32 6 0.000000 13.328000 44.556000 1.099500 # H LIG
516 15 9 0.000000 10.990000 44.474998 0.504500 # Ob LIG
517 16 9 0.000000 24.047001 21.860001 0.504500 # Ob LIG
518 32 4 0.000000 6.070000 35.174999 2.914500 # Cc LIG
519 32 4 0.000000 19.127001 12.560000 2.914500 # Cc LIG
520 11 2 0.000000 7.967000 32.139999 1.694500 # Ca LIG
521 12 2 0.000000 21.024000 9.525000 1.694500 # Ca LIG
522 32 3 0.000000 7.231000 33.020000 2.634500 # Cb LIG
523 32 3 0.000000 20.288000 10.405000 2.634500 # Cb LIG
524 32 5 0.000000 6.773000 34.248001 2.139500 # Cd LIG
525 32 5 0.000000 19.830000 11.633000 2.139500 # Cd LIG
526 32 6 0.000000 6.977000 34.494999 1.099500 # H LIG
527 32 6 0.000000 20.033001 11.880000 1.099500 # H LIG
528 11 9 0.000000 8.216000 32.509998 0.504500 # Ob LIG