LAMMPS data file. CGCMM style. atom_style full generated by VMD/TopoTools v1.5 on Mon Apr 24 10:59:32 PDT 2017
 3465 atoms
 582 bonds
 0 angles
 0 dihedrals
 0 impropers
 11 atom types
 1 bond types
 0 angle types
 0 dihedral types
 0 improper types
 0.451838 52.642840  xlo xhi
 0.325101 45.523500  ylo yhi
 -0.159620 27.367621  zlo zhi

# Pair Coeffs
#
# 1  Ca
# 2  Cb
# 3  Cc
# 4  Cd
# 5  Cg
# 6  H
# 7  Oa
# 8  Ob
# 9  Oc
# 10  Og
# 11  Zn

 Masses

 1 12.011000 # Ca
 2 12.011000 # Cb
 3 12.011000 # Cc
 4 12.011000 # Cd
 5 12.011000 # Cg
 6 1.008000 # H
 7 15.999000 # Oa
 8 15.999000 # Ob
 9 15.999000 # Oc
 10 15.999000 # Og
 11 65.379997 # Zn

 Atoms

1 1 10 -0.325600 52.190678 45.197601 16.271999 # Og 
2 1 5 0.651200 52.190678 45.197601 15.112000 # Cg 
3 1 10 -0.325600 52.190678 45.197601 13.952001 # Og 
4 2 10 -0.325600 52.190678 45.197601 16.649000 # Og 
5 2 5 0.651200 52.190678 45.197601 15.489000 # Cg 
6 2 10 -0.325600 52.190678 45.197601 14.329000 # Og 
7 3 10 -0.325600 52.190678 45.197601 17.026001 # Og 
8 3 5 0.651200 52.190678 45.197601 15.866000 # Cg 
9 3 10 -0.325600 52.190678 45.197601 14.706000 # Og 
10 4 10 -0.325600 52.190678 45.197601 17.403000 # Og 
11 4 5 0.651200 52.190678 45.197601 16.243000 # Cg 
12 4 10 -0.325600 52.190678 45.197601 15.083000 # Og 
13 5 10 -0.325600 52.190678 45.197601 17.780001 # Og 
14 5 5 0.651200 52.190678 45.197601 16.620001 # Cg 
15 5 10 -0.325600 52.190678 45.197601 15.460000 # Og 
16 6 10 -0.325600 52.190678 45.197601 18.157001 # Og 
17 6 5 0.651200 52.190678 45.197601 16.997002 # Cg 
18 6 10 -0.325600 52.190678 45.197601 15.837001 # Og 
19 7 10 -0.325600 52.190678 45.197601 18.534000 # Og 
20 7 5 0.651200 52.190678 45.197601 17.374001 # Cg 
21 7 10 -0.325600 52.190678 45.197601 16.214001 # Og 
22 8 10 -0.325600 52.190678 45.197601 18.912001 # Og 
23 8 5 0.651200 52.190678 45.197601 17.752001 # Cg 
24 8 10 -0.325600 52.190678 45.197601 16.591999 # Og 
25 9 10 -0.325600 52.190678 45.197601 19.289001 # Og 
26 9 5 0.651200 52.190678 45.197601 18.129002 # Cg 
27 9 10 -0.325600 52.190678 45.197601 16.969002 # Og 
28 10 10 -0.325600 52.190678 45.197601 19.666000 # Og 
29 10 5 0.651200 52.190678 45.197601 18.506001 # Cg 
30 10 10 -0.325600 52.190678 45.197601 17.346001 # Og 
31 11 10 -0.325600 52.190678 45.197601 20.042999 # Og 
32 11 5 0.651200 52.190678 45.197601 18.882999 # Cg 
33 11 10 -0.325600 52.190678 45.197601 17.723000 # Og 
34 12 10 -0.325600 52.190678 45.197601 20.420000 # Og 
35 12 5 0.651200 52.190678 45.197601 19.260000 # Cg 
36 12 10 -0.325600 52.190678 45.197601 18.100000 # Og 
37 13 10 -0.325600 52.190678 45.197601 20.797001 # Og 
38 13 5 0.651200 52.190678 45.197601 19.637001 # Cg 
39 13 10 -0.325600 52.190678 45.197601 18.477001 # Og 
40 14 10 -0.325600 52.190678 45.197601 21.174000 # Og 
41 14 5 0.651200 52.190678 45.197601 20.014000 # Cg 
42 14 10 -0.325600 52.190678 45.197601 18.854000 # Og 
43 15 10 -0.325600 52.190678 45.197601 21.551001 # Og 
44 15 5 0.651200 52.190678 45.197601 20.391001 # Cg 
45 15 10 -0.325600 52.190678 45.197601 19.231001 # Og 
46 16 10 -0.325600 52.190678 45.197601 21.928001 # Og 
47 16 5 0.651200 52.190678 45.197601 20.768002 # Cg 
48 16 10 -0.325600 52.190678 45.197601 19.608000 # Og 
49 17 10 -0.325600 52.190678 45.197601 22.305000 # Og 
50 17 5 0.651200 52.190678 45.197601 21.145000 # Cg 
51 17 10 -0.325600 52.190678 45.197601 19.985001 # Og 
52 18 10 -0.325600 52.190678 45.197601 22.682001 # Og 
53 18 5 0.651200 52.190678 45.197601 21.521999 # Cg 
54 18 10 -0.325600 52.190678 45.197601 20.362000 # Og 
55 19 10 -0.325600 52.190678 45.197601 23.059000 # Og 
56 19 5 0.651200 52.190678 45.197601 21.899000 # Cg 
57 19 10 -0.325600 52.190678 45.197601 20.739000 # Og 
58 20 10 -0.325600 52.190678 45.197601 23.437000 # Og 
59 20 5 0.651200 52.190678 45.197601 22.277000 # Cg 
60 20 10 -0.325600 52.190678 45.197601 21.117001 # Og 
61 21 10 -0.325600 52.190678 45.197601 23.814001 # Og 
62 21 5 0.651200 52.190678 45.197601 22.653999 # Cg 
63 21 10 -0.325600 52.190678 45.197601 21.493999 # Og 
64 22 10 -0.325600 52.190678 45.197601 24.191000 # Og 
65 22 5 0.651200 52.190678 45.197601 23.031000 # Cg 
66 22 10 -0.325600 52.190678 45.197601 21.871000 # Og 
67 23 10 -0.325600 52.190678 45.197601 24.568001 # Og 
68 23 5 0.651200 52.190678 45.197601 23.408001 # Cg 
69 23 10 -0.325600 52.190678 45.197601 22.248001 # Og 
70 24 10 -0.325600 52.190678 45.197601 24.945000 # Og 
71 24 5 0.651200 52.190678 45.197601 23.785000 # Cg 
72 24 10 -0.325600 52.190678 45.197601 22.625000 # Og 
73 25 10 -0.325600 52.190678 45.197601 25.322001 # Og 
74 25 5 0.651200 52.190678 45.197601 24.162001 # Cg 
75 25 10 -0.325600 52.190678 45.197601 23.002001 # Og 
76 26 10 -0.325600 52.190678 45.197601 25.699001 # Og 
77 26 5 0.651200 52.190678 45.197601 24.539001 # Cg 
78 26 10 -0.325600 52.190678 45.197601 23.379002 # Og 
79 27 10 -0.325600 52.190678 45.197601 26.076000 # Og 
80 27 5 0.651200 52.190678 45.197601 24.916000 # Cg 
81 27 10 -0.325600 52.190678 45.197601 23.756001 # Og 
82 28 10 -0.325600 52.190678 45.197601 26.453001 # Og 
83 28 5 0.651200 52.190678 45.197601 25.293001 # Cg 
84 28 10 -0.325600 52.190678 45.197601 24.132999 # Og 
85 29 10 -0.325600 52.190678 45.197601 26.830000 # Og 
86 29 5 0.651200 52.190678 45.197601 25.670000 # Cg 
87 29 10 -0.325600 52.190678 45.197601 24.510000 # Og 
88 30 10 -0.325600 52.190678 45.197601 27.207001 # Og 
89 30 5 0.651200 52.190678 45.197601 26.047001 # Cg 
90 30 10 -0.325600 52.190678 45.197601 24.887001 # Og 
91 31 10 -0.325600 52.190678 45.197601 0.057000 # Og 
92 31 5 0.651200 52.190678 45.197601 26.424000 # Cg 
93 31 10 -0.325600 52.190678 45.197601 25.264000 # Og 
94 32 10 -0.325600 52.190678 45.197601 0.435000 # Og 
95 32 5 0.651200 52.190678 45.197601 26.802000 # Cg 
96 32 10 -0.325600 52.190678 45.197601 25.642000 # Og 
97 33 10 -0.325600 52.190678 45.197601 0.812000 # Og 
98 33 5 0.651200 52.190678 45.197601 27.179001 # Cg 
99 33 10 -0.325600 52.190678 45.197601 26.019001 # Og 
100 34 10 -0.325600 52.190678 45.197601 1.189000 # Og 
101 34 5 0.651200 52.190678 45.197601 0.029000 # Cg 
102 34 10 -0.325600 52.190678 45.197601 26.396000 # Og 
103 35 10 -0.325600 52.190678 45.197601 1.566000 # Og 
104 35 5 0.651200 52.190678 45.197601 0.406000 # Cg 
105 35 10 -0.325600 52.190678 45.197601 26.773001 # Og 
106 36 10 -0.325600 52.190678 45.197601 1.943000 # Og 
107 36 5 0.651200 52.190678 45.197601 0.783000 # Cg 
108 36 10 -0.325600 52.190678 45.197601 27.150000 # Og 
109 37 10 -0.325600 52.190678 45.197601 2.320000 # Og 
110 37 5 0.651200 52.190678 45.197601 1.160000 # Cg 
111 37 10 -0.325600 52.190678 45.197601 0.000000 # Og 
112 38 10 -0.325600 52.190678 45.197601 2.697000 # Og 
113 38 5 0.651200 52.190678 45.197601 1.537000 # Cg 
114 38 10 -0.325600 52.190678 45.197601 0.377000 # Og 
115 39 10 -0.325600 52.190678 45.197601 3.074000 # Og 
116 39 5 0.651200 52.190678 45.197601 1.914000 # Cg 
117 39 10 -0.325600 52.190678 45.197601 0.754000 # Og 
118 40 10 -0.325600 52.190678 45.197601 3.451000 # Og 
119 40 5 0.651200 52.190678 45.197601 2.291000 # Cg 
120 40 10 -0.325600 52.190678 45.197601 1.131000 # Og 
121 41 10 -0.325600 52.190678 45.197601 3.828000 # Og 
122 41 5 0.651200 52.190678 45.197601 2.668000 # Cg 
123 41 10 -0.325600 52.190678 45.197601 1.508000 # Og 
124 42 10 -0.325600 52.190678 45.197601 4.205000 # Og 
125 42 5 0.651200 52.190678 45.197601 3.045000 # Cg 
126 42 10 -0.325600 52.190678 45.197601 1.885000 # Og 
127 43 10 -0.325600 52.190678 45.197601 4.583000 # Og 
128 43 5 0.651200 52.190678 45.197601 3.423000 # Cg 
129 43 10 -0.325600 52.190678 45.197601 2.263000 # Og 
130 44 10 -0.325600 52.190678 45.197601 4.960000 # Og 
131 44 5 0.651200 52.190678 45.197601 3.800000 # Cg 
132 44 10 -0.325600 52.190678 45.197601 2.640000 # Og 
133 45 10 -0.325600 52.190678 45.197601 5.337000 # Og 
134 45 5 0.651200 52.190678 45.197601 4.177000 # Cg 
135 45 10 -0.325600 52.190678 45.197601 3.017000 # Og 
136 46 10 -0.325600 52.190678 45.197601 5.714000 # Og 
137 46 5 0.651200 52.190678 45.197601 4.554000 # Cg 
138 46 10 -0.325600 52.190678 45.197601 3.394000 # Og 
139 47 10 -0.325600 52.190678 45.197601 6.091000 # Og 
140 47 5 0.651200 52.190678 45.197601 4.931000 # Cg 
141 47 10 -0.325600 52.190678 45.197601 3.771000 # Og 
142 48 10 -0.325600 52.190678 45.197601 6.468000 # Og 
143 48 5 0.651200 52.190678 45.197601 5.308000 # Cg 
144 48 10 -0.325600 52.190678 45.197601 4.148000 # Og 
145 49 10 -0.325600 52.190678 45.197601 6.845000 # Og 
146 49 5 0.651200 52.190678 45.197601 5.685000 # Cg 
147 49 10 -0.325600 52.190678 45.197601 4.525000 # Og 
148 50 10 -0.325600 52.190678 45.197601 7.222000 # Og 
149 50 5 0.651200 52.190678 45.197601 6.062000 # Cg 
150 50 10 -0.325600 52.190678 45.197601 4.902000 # Og 
151 51 10 -0.325600 52.190678 45.197601 7.599000 # Og 
152 51 5 0.651200 52.190678 45.197601 6.439000 # Cg 
153 51 10 -0.325600 52.190678 45.197601 5.279000 # Og 
154 52 10 -0.325600 52.190678 45.197601 7.976000 # Og 
155 52 5 0.651200 52.190678 45.197601 6.816000 # Cg 
156 52 10 -0.325600 52.190678 45.197601 5.656000 # Og 
157 53 10 -0.325600 52.190678 45.197601 8.353000 # Og 
158 53 5 0.651200 52.190678 45.197601 7.193000 # Cg 
159 53 10 -0.325600 52.190678 45.197601 6.033000 # Og 
160 54 10 -0.325600 52.190678 45.197601 8.730000 # Og 
161 54 5 0.651200 52.190678 45.197601 7.570000 # Cg 
162 54 10 -0.325600 52.190678 45.197601 6.410000 # Og 
163 55 10 -0.325600 52.190678 45.197601 9.108000 # Og 
164 55 5 0.651200 52.190678 45.197601 7.948000 # Cg 
165 55 10 -0.325600 52.190678 45.197601 6.788000 # Og 
166 56 10 -0.325600 52.190678 45.197601 9.485000 # Og 
167 56 5 0.651200 52.190678 45.197601 8.325000 # Cg 
168 56 10 -0.325600 52.190678 45.197601 7.165000 # Og 
169 57 10 -0.325600 52.190678 45.197601 9.862000 # Og 
170 57 5 0.651200 52.190678 45.197601 8.702000 # Cg 
171 57 10 -0.325600 52.190678 45.197601 7.542000 # Og 
172 58 10 -0.325600 52.190678 45.197601 10.239000 # Og 
173 58 5 0.651200 52.190678 45.197601 9.079000 # Cg 
174 58 10 -0.325600 52.190678 45.197601 7.919000 # Og 
175 59 10 -0.325600 52.190678 45.197601 10.616000 # Og 
176 59 5 0.651200 52.190678 45.197601 9.456000 # Cg 
177 59 10 -0.325600 52.190678 45.197601 8.296000 # Og 
178 60 10 -0.325600 52.190678 45.197601 10.993000 # Og 
179 60 5 0.651200 52.190678 45.197601 9.833000 # Cg 
180 60 10 -0.325600 52.190678 45.197601 8.673000 # Og 
181 61 10 -0.325600 52.190678 45.197601 11.370000 # Og 
182 61 5 0.651200 52.190678 45.197601 10.210000 # Cg 
183 61 10 -0.325600 52.190678 45.197601 9.050000 # Og 
184 62 10 -0.325600 52.190678 45.197601 11.747000 # Og 
185 62 5 0.651200 52.190678 45.197601 10.587000 # Cg 
186 62 10 -0.325600 52.190678 45.197601 9.427000 # Og 
187 63 10 -0.325600 52.190678 45.197601 12.124000 # Og 
188 63 5 0.651200 52.190678 45.197601 10.964000 # Cg 
189 63 10 -0.325600 52.190678 45.197601 9.804000 # Og 
190 64 10 -0.325600 52.190678 45.197601 12.501000 # Og 
191 64 5 0.651200 52.190678 45.197601 11.341000 # Cg 
192 64 10 -0.325600 52.190678 45.197601 10.181000 # Og 
193 65 10 -0.325600 52.190678 45.197601 12.878000 # Og 
194 65 5 0.651200 52.190678 45.197601 11.718000 # Cg 
195 65 10 -0.325600 52.190678 45.197601 10.558000 # Og 
196 66 10 -0.325600 52.190678 45.197601 13.255000 # Og 
197 66 5 0.651200 52.190678 45.197601 12.095000 # Cg 
198 66 10 -0.325600 52.190678 45.197601 10.935000 # Og 
199 67 10 -0.325600 52.190678 45.197601 13.633000 # Og 
200 67 5 0.651200 52.190678 45.197601 12.473000 # Cg 
201 67 10 -0.325600 52.190678 45.197601 11.313000 # Og 
202 68 10 -0.325600 52.190678 45.197601 14.010000 # Og 
203 68 5 0.651200 52.190678 45.197601 12.850000 # Cg 
204 68 10 -0.325600 52.190678 45.197601 11.690000 # Og 
205 69 10 -0.325600 52.190678 45.197601 14.387000 # Og 
206 69 5 0.651200 52.190678 45.197601 13.227000 # Cg 
207 69 10 -0.325600 52.190678 45.197601 12.067000 # Og 
208 70 10 -0.325600 52.190678 45.197601 14.764000 # Og 
209 70 5 0.651200 52.190678 45.197601 13.604000 # Cg 
210 70 10 -0.325600 52.190678 45.197601 12.444000 # Og 
211 71 10 -0.325600 52.190678 45.197601 15.141000 # Og 
212 71 5 0.651200 52.190678 45.197601 13.981000 # Cg 
213 71 10 -0.325600 52.190678 45.197601 12.821000 # Og 
214 72 10 -0.325600 52.190678 45.197601 15.518000 # Og 
215 72 5 0.651200 52.190678 45.197601 14.358000 # Cg 
216 72 10 -0.325600 52.190678 45.197601 13.198000 # Og 
217 73 10 -0.325600 52.190678 45.197601 15.895000 # Og 
218 73 5 0.651200 52.190678 45.197601 14.735000 # Cg 
219 73 10 -0.325600 52.190678 45.197601 13.575000 # Og 
220 74 10 -0.325600 52.190678 22.599600 16.271999 # Og 
221 74 5 0.651200 52.190678 22.599600 15.112000 # Cg 
222 74 10 -0.325600 52.190678 22.599600 13.952001 # Og 
223 75 10 -0.325600 52.190678 22.599600 16.649000 # Og 
224 75 5 0.651200 52.190678 22.599600 15.489000 # Cg 
225 75 10 -0.325600 52.190678 22.599600 14.329000 # Og 
226 76 10 -0.325600 52.190678 22.599600 17.026001 # Og 
227 76 5 0.651200 52.190678 22.599600 15.866000 # Cg 
228 76 10 -0.325600 52.190678 22.599600 14.706000 # Og 
229 77 10 -0.325600 52.190678 22.599600 17.403000 # Og 
230 77 5 0.651200 52.190678 22.599600 16.243000 # Cg 
231 77 10 -0.325600 52.190678 22.599600 15.083000 # Og 
232 78 10 -0.325600 52.190678 22.599600 17.780001 # Og 
233 78 5 0.651200 52.190678 22.599600 16.620001 # Cg 
234 78 10 -0.325600 52.190678 22.599600 15.460000 # Og 
235 79 10 -0.325600 52.190678 22.599600 18.157001 # Og 
236 79 5 0.651200 52.190678 22.599600 16.997002 # Cg 
237 79 10 -0.325600 52.190678 22.599600 15.837001 # Og 
238 80 10 -0.325600 52.190678 22.599600 18.534000 # Og 
239 80 5 0.651200 52.190678 22.599600 17.374001 # Cg 
240 80 10 -0.325600 52.190678 22.599600 16.214001 # Og 
241 81 10 -0.325600 52.190678 22.599600 18.912001 # Og 
242 81 5 0.651200 52.190678 22.599600 17.752001 # Cg 
243 81 10 -0.325600 52.190678 22.599600 16.591999 # Og 
244 82 10 -0.325600 52.190678 22.599600 19.289001 # Og 
245 82 5 0.651200 52.190678 22.599600 18.129002 # Cg 
246 82 10 -0.325600 52.190678 22.599600 16.969002 # Og 
247 83 10 -0.325600 52.190678 22.599600 19.666000 # Og 
248 83 5 0.651200 52.190678 22.599600 18.506001 # Cg 
249 83 10 -0.325600 52.190678 22.599600 17.346001 # Og 
250 84 10 -0.325600 52.190678 22.599600 20.042999 # Og 
251 84 5 0.651200 52.190678 22.599600 18.882999 # Cg 
252 84 10 -0.325600 52.190678 22.599600 17.723000 # Og 
253 85 10 -0.325600 52.190678 22.599600 20.420000 # Og 
254 85 5 0.651200 52.190678 22.599600 19.260000 # Cg 
255 85 10 -0.325600 52.190678 22.599600 18.100000 # Og 
256 86 10 -0.325600 52.190678 22.599600 20.797001 # Og 
257 86 5 0.651200 52.190678 22.599600 19.637001 # Cg 
258 86 10 -0.325600 52.190678 22.599600 18.477001 # Og 
259 87 10 -0.325600 52.190678 22.599600 21.174000 # Og 
260 87 5 0.651200 52.190678 22.599600 20.014000 # Cg 
261 87 10 -0.325600 52.190678 22.599600 18.854000 # Og 
262 88 10 -0.325600 52.190678 22.599600 21.551001 # Og 
263 88 5 0.651200 52.190678 22.599600 20.391001 # Cg 
264 88 10 -0.325600 52.190678 22.599600 19.231001 # Og 
265 89 10 -0.325600 52.190678 22.599600 21.928001 # Og 
266 89 5 0.651200 52.190678 22.599600 20.768002 # Cg 
267 89 10 -0.325600 52.190678 22.599600 19.608000 # Og 
268 90 10 -0.325600 52.190678 22.599600 22.305000 # Og 
269 90 5 0.651200 52.190678 22.599600 21.145000 # Cg 
270 90 10 -0.325600 52.190678 22.599600 19.985001 # Og 
271 91 10 -0.325600 52.190678 22.599600 22.682001 # Og 
272 91 5 0.651200 52.190678 22.599600 21.521999 # Cg 
273 91 10 -0.325600 52.190678 22.599600 20.362000 # Og 
274 92 10 -0.325600 52.190678 22.599600 23.059000 # Og 
275 92 5 0.651200 52.190678 22.599600 21.899000 # Cg 
276 92 10 -0.325600 52.190678 22.599600 20.739000 # Og 
277 93 10 -0.325600 52.190678 22.599600 23.437000 # Og 
278 93 5 0.651200 52.190678 22.599600 22.277000 # Cg 
279 93 10 -0.325600 52.190678 22.599600 21.117001 # Og 
280 94 10 -0.325600 52.190678 22.599600 23.814001 # Og 
281 94 5 0.651200 52.190678 22.599600 22.653999 # Cg 
282 94 10 -0.325600 52.190678 22.599600 21.493999 # Og 
283 95 10 -0.325600 52.190678 22.599600 24.191000 # Og 
284 95 5 0.651200 52.190678 22.599600 23.031000 # Cg 
285 95 10 -0.325600 52.190678 22.599600 21.871000 # Og 
286 96 10 -0.325600 52.190678 22.599600 24.568001 # Og 
287 96 5 0.651200 52.190678 22.599600 23.408001 # Cg 
288 96 10 -0.325600 52.190678 22.599600 22.248001 # Og 
289 97 10 -0.325600 52.190678 22.599600 24.945000 # Og 
290 97 5 0.651200 52.190678 22.599600 23.785000 # Cg 
291 97 10 -0.325600 52.190678 22.599600 22.625000 # Og 
292 98 10 -0.325600 52.190678 22.599600 25.322001 # Og 
293 98 5 0.651200 52.190678 22.599600 24.162001 # Cg 
294 98 10 -0.325600 52.190678 22.599600 23.002001 # Og 
295 99 10 -0.325600 52.190678 22.599600 25.699001 # Og 
296 99 5 0.651200 52.190678 22.599600 24.539001 # Cg 
297 99 10 -0.325600 52.190678 22.599600 23.379002 # Og 
298 100 10 -0.325600 52.190678 22.599600 26.076000 # Og 
299 100 5 0.651200 52.190678 22.599600 24.916000 # Cg 
300 100 10 -0.325600 52.190678 22.599600 23.756001 # Og 
301 101 10 -0.325600 52.190678 22.599600 26.453001 # Og 
302 101 5 0.651200 52.190678 22.599600 25.293001 # Cg 
303 101 10 -0.325600 52.190678 22.599600 24.132999 # Og 
304 102 10 -0.325600 52.190678 22.599600 26.830000 # Og 
305 102 5 0.651200 52.190678 22.599600 25.670000 # Cg 
306 102 10 -0.325600 52.190678 22.599600 24.510000 # Og 
307 103 10 -0.325600 52.190678 22.599600 27.207001 # Og 
308 103 5 0.651200 52.190678 22.599600 26.047001 # Cg 
309 103 10 -0.325600 52.190678 22.599600 24.887001 # Og 
310 104 10 -0.325600 52.190678 22.599600 0.057000 # Og 
311 104 5 0.651200 52.190678 22.599600 26.424000 # Cg 
312 104 10 -0.325600 52.190678 22.599600 25.264000 # Og 
313 105 10 -0.325600 52.190678 22.599600 0.435000 # Og 
314 105 5 0.651200 52.190678 22.599600 26.802000 # Cg 
315 105 10 -0.325600 52.190678 22.599600 25.642000 # Og 
316 106 10 -0.325600 52.190678 22.599600 0.812000 # Og 
317 106 5 0.651200 52.190678 22.599600 27.179001 # Cg 
318 106 10 -0.325600 52.190678 22.599600 26.019001 # Og 
319 107 10 -0.325600 52.190678 22.599600 1.189000 # Og 
320 107 5 0.651200 52.190678 22.599600 0.029000 # Cg 
321 107 10 -0.325600 52.190678 22.599600 26.396000 # Og 
322 108 10 -0.325600 52.190678 22.599600 1.566000 # Og 
323 108 5 0.651200 52.190678 22.599600 0.406000 # Cg 
324 108 10 -0.325600 52.190678 22.599600 26.773001 # Og 
325 109 10 -0.325600 52.190678 22.599600 1.943000 # Og 
326 109 5 0.651200 52.190678 22.599600 0.783000 # Cg 
327 109 10 -0.325600 52.190678 22.599600 27.150000 # Og 
328 110 10 -0.325600 52.190678 22.599600 2.320000 # Og 
329 110 5 0.651200 52.190678 22.599600 1.160000 # Cg 
330 110 10 -0.325600 52.190678 22.599600 0.000000 # Og 
331 111 10 -0.325600 52.190678 22.599600 2.697000 # Og 
332 111 5 0.651200 52.190678 22.599600 1.537000 # Cg 
333 111 10 -0.325600 52.190678 22.599600 0.377000 # Og 
334 112 10 -0.325600 52.190678 22.599600 3.074000 # Og 
335 112 5 0.651200 52.190678 22.599600 1.914000 # Cg 
336 112 10 -0.325600 52.190678 22.599600 0.754000 # Og 
337 113 10 -0.325600 52.190678 22.599600 3.451000 # Og 
338 113 5 0.651200 52.190678 22.599600 2.291000 # Cg 
339 113 10 -0.325600 52.190678 22.599600 1.131000 # Og 
340 114 10 -0.325600 52.190678 22.599600 3.828000 # Og 
341 114 5 0.651200 52.190678 22.599600 2.668000 # Cg 
342 114 10 -0.325600 52.190678 22.599600 1.508000 # Og 
343 115 10 -0.325600 52.190678 22.599600 4.205000 # Og 
344 115 5 0.651200 52.190678 22.599600 3.045000 # Cg 
345 115 10 -0.325600 52.190678 22.599600 1.885000 # Og 
346 116 10 -0.325600 52.190678 22.599600 4.583000 # Og 
347 116 5 0.651200 52.190678 22.599600 3.423000 # Cg 
348 116 10 -0.325600 52.190678 22.599600 2.263000 # Og 
349 117 10 -0.325600 52.190678 22.599600 4.960000 # Og 
350 117 5 0.651200 52.190678 22.599600 3.800000 # Cg 
351 117 10 -0.325600 52.190678 22.599600 2.640000 # Og 
352 118 10 -0.325600 52.190678 22.599600 5.337000 # Og 
353 118 5 0.651200 52.190678 22.599600 4.177000 # Cg 
354 118 10 -0.325600 52.190678 22.599600 3.017000 # Og 
355 119 10 -0.325600 52.190678 22.599600 5.714000 # Og 
356 119 5 0.651200 52.190678 22.599600 4.554000 # Cg 
357 119 10 -0.325600 52.190678 22.599600 3.394000 # Og 
358 120 10 -0.325600 52.190678 22.599600 6.091000 # Og 
359 120 5 0.651200 52.190678 22.599600 4.931000 # Cg 
360 120 10 -0.325600 52.190678 22.599600 3.771000 # Og 
361 121 10 -0.325600 52.190678 22.599600 6.468000 # Og 
362 121 5 0.651200 52.190678 22.599600 5.308000 # Cg 
363 121 10 -0.325600 52.190678 22.599600 4.148000 # Og 
364 122 10 -0.325600 52.190678 22.599600 6.845000 # Og 
365 122 5 0.651200 52.190678 22.599600 5.685000 # Cg 
366 122 10 -0.325600 52.190678 22.599600 4.525000 # Og 
367 123 10 -0.325600 52.190678 22.599600 7.222000 # Og 
368 123 5 0.651200 52.190678 22.599600 6.062000 # Cg 
369 123 10 -0.325600 52.190678 22.599600 4.902000 # Og 
370 124 10 -0.325600 52.190678 22.599600 7.599000 # Og 
371 124 5 0.651200 52.190678 22.599600 6.439000 # Cg 
372 124 10 -0.325600 52.190678 22.599600 5.279000 # Og 
373 125 10 -0.325600 52.190678 22.599600 7.976000 # Og 
374 125 5 0.651200 52.190678 22.599600 6.816000 # Cg 
375 125 10 -0.325600 52.190678 22.599600 5.656000 # Og 
376 126 10 -0.325600 52.190678 22.599600 8.353000 # Og 
377 126 5 0.651200 52.190678 22.599600 7.193000 # Cg 
378 126 10 -0.325600 52.190678 22.599600 6.033000 # Og 
379 127 10 -0.325600 52.190678 22.599600 8.730000 # Og 
380 127 5 0.651200 52.190678 22.599600 7.570000 # Cg 
381 127 10 -0.325600 52.190678 22.599600 6.410000 # Og 
382 128 10 -0.325600 52.190678 22.599600 9.108000 # Og 
383 128 5 0.651200 52.190678 22.599600 7.948000 # Cg 
384 128 10 -0.325600 52.190678 22.599600 6.788000 # Og 
385 129 10 -0.325600 52.190678 22.599600 9.485000 # Og 
386 129 5 0.651200 52.190678 22.599600 8.325000 # Cg 
387 129 10 -0.325600 52.190678 22.599600 7.165000 # Og 
388 130 10 -0.325600 52.190678 22.599600 9.862000 # Og 
389 130 5 0.651200 52.190678 22.599600 8.702000 # Cg 
390 130 10 -0.325600 52.190678 22.599600 7.542000 # Og 
391 131 10 -0.325600 52.190678 22.599600 10.239000 # Og 
392 131 5 0.651200 52.190678 22.599600 9.079000 # Cg 
393 131 10 -0.325600 52.190678 22.599600 7.919000 # Og 
394 132 10 -0.325600 52.190678 22.599600 10.616000 # Og 
395 132 5 0.651200 52.190678 22.599600 9.456000 # Cg 
396 132 10 -0.325600 52.190678 22.599600 8.296000 # Og 
397 133 10 -0.325600 52.190678 22.599600 10.993000 # Og 
398 133 5 0.651200 52.190678 22.599600 9.833000 # Cg 
399 133 10 -0.325600 52.190678 22.599600 8.673000 # Og 
400 134 10 -0.325600 52.190678 22.599600 11.370000 # Og 
401 134 5 0.651200 52.190678 22.599600 10.210000 # Cg 
402 134 10 -0.325600 52.190678 22.599600 9.050000 # Og 
403 135 10 -0.325600 52.190678 22.599600 11.747000 # Og 
404 135 5 0.651200 52.190678 22.599600 10.587000 # Cg 
405 135 10 -0.325600 52.190678 22.599600 9.427000 # Og 
406 136 10 -0.325600 52.190678 22.599600 12.124000 # Og 
407 136 5 0.651200 52.190678 22.599600 10.964000 # Cg 
408 136 10 -0.325600 52.190678 22.599600 9.804000 # Og 
409 137 10 -0.325600 52.190678 22.599600 12.501000 # Og 
410 137 5 0.651200 52.190678 22.599600 11.341000 # Cg 
411 137 10 -0.325600 52.190678 22.599600 10.181000 # Og 
412 138 10 -0.325600 52.190678 22.599600 12.878000 # Og 
413 138 5 0.651200 52.190678 22.599600 11.718000 # Cg 
414 138 10 -0.325600 52.190678 22.599600 10.558000 # Og 
415 139 10 -0.325600 52.190678 22.599600 13.255000 # Og 
416 139 5 0.651200 52.190678 22.599600 12.095000 # Cg 
417 139 10 -0.325600 52.190678 22.599600 10.935000 # Og 
418 140 10 -0.325600 52.190678 22.599600 13.633000 # Og 
419 140 5 0.651200 52.190678 22.599600 12.473000 # Cg 
420 140 10 -0.325600 52.190678 22.599600 11.313000 # Og 
421 141 10 -0.325600 52.190678 22.599600 14.010000 # Og 
422 141 5 0.651200 52.190678 22.599600 12.850000 # Cg 
423 141 10 -0.325600 52.190678 22.599600 11.690000 # Og 
424 142 10 -0.325600 52.190678 22.599600 14.387000 # Og 
425 142 5 0.651200 52.190678 22.599600 13.227000 # Cg 
426 142 10 -0.325600 52.190678 22.599600 12.067000 # Og 
427 143 10 -0.325600 52.190678 22.599600 14.764000 # Og 
428 143 5 0.651200 52.190678 22.599600 13.604000 # Cg 
429 143 10 -0.325600 52.190678 22.599600 12.444000 # Og 
430 144 10 -0.325600 52.190678 22.599600 15.141000 # Og 
431 144 5 0.651200 52.190678 22.599600 13.981000 # Cg 
432 144 10 -0.325600 52.190678 22.599600 12.821000 # Og 
433 145 10 -0.325600 52.190678 22.599600 15.518000 # Og 
434 145 5 0.651200 52.190678 22.599600 14.358000 # Cg 
435 145 10 -0.325600 52.190678 22.599600 13.198000 # Og 
436 146 10 -0.325600 52.190678 22.599600 15.895000 # Og 
437 146 5 0.651200 52.190678 22.599600 14.735000 # Cg 
438 146 10 -0.325600 52.190678 22.599600 13.575000 # Og 
439 147 10 -0.325600 26.095676 45.197601 16.271999 # Og 
440 147 5 0.651200 26.095676 45.197601 15.112000 # Cg 
441 147 10 -0.325600 26.095676 45.197601 13.952001 # Og 
442 148 10 -0.325600 26.095676 45.197601 16.649000 # Og 
443 148 5 0.651200 26.095676 45.197601 15.489000 # Cg 
444 148 10 -0.325600 26.095676 45.197601 14.329000 # Og 
445 149 10 -0.325600 26.095676 45.197601 17.026001 # Og 
446 149 5 0.651200 26.095676 45.197601 15.866000 # Cg 
447 149 10 -0.325600 26.095676 45.197601 14.706000 # Og 
448 150 10 -0.325600 26.095676 45.197601 17.403000 # Og 
449 150 5 0.651200 26.095676 45.197601 16.243000 # Cg 
450 150 10 -0.325600 26.095676 45.197601 15.083000 # Og 
451 151 10 -0.325600 26.095676 45.197601 17.780001 # Og 
452 151 5 0.651200 26.095676 45.197601 16.620001 # Cg 
453 151 10 -0.325600 26.095676 45.197601 15.460000 # Og 
454 152 10 -0.325600 26.095676 45.197601 18.157001 # Og 
455 152 5 0.651200 26.095676 45.197601 16.997002 # Cg 
456 152 10 -0.325600 26.095676 45.197601 15.837001 # Og 
457 153 10 -0.325600 26.095676 45.197601 18.534000 # Og 
458 153 5 0.651200 26.095676 45.197601 17.374001 # Cg 
459 153 10 -0.325600 26.095676 45.197601 16.214001 # Og 
460 154 10 -0.325600 26.095676 45.197601 18.912001 # Og 
461 154 5 0.651200 26.095676 45.197601 17.752001 # Cg 
462 154 10 -0.325600 26.095676 45.197601 16.591999 # Og 
463 155 10 -0.325600 26.095676 45.197601 19.289001 # Og 
464 155 5 0.651200 26.095676 45.197601 18.129002 # Cg 
465 155 10 -0.325600 26.095676 45.197601 16.969002 # Og 
466 156 10 -0.325600 26.095676 45.197601 19.666000 # Og 
467 156 5 0.651200 26.095676 45.197601 18.506001 # Cg 
468 156 10 -0.325600 26.095676 45.197601 17.346001 # Og 
469 157 10 -0.325600 26.095676 45.197601 20.042999 # Og 
470 157 5 0.651200 26.095676 45.197601 18.882999 # Cg 
471 157 10 -0.325600 26.095676 45.197601 17.723000 # Og 
472 158 10 -0.325600 26.095676 45.197601 20.420000 # Og 
473 158 5 0.651200 26.095676 45.197601 19.260000 # Cg 
474 158 10 -0.325600 26.095676 45.197601 18.100000 # Og 
475 159 10 -0.325600 26.095676 45.197601 20.797001 # Og 
476 159 5 0.651200 26.095676 45.197601 19.637001 # Cg 
477 159 10 -0.325600 26.095676 45.197601 18.477001 # Og 
478 160 10 -0.325600 26.095676 45.197601 21.174000 # Og 
479 160 5 0.651200 26.095676 45.197601 20.014000 # Cg 
480 160 10 -0.325600 26.095676 45.197601 18.854000 # Og 
481 161 10 -0.325600 26.095676 45.197601 21.551001 # Og 
482 161 5 0.651200 26.095676 45.197601 20.391001 # Cg 
483 161 10 -0.325600 26.095676 45.197601 19.231001 # Og 
484 162 10 -0.325600 26.095676 45.197601 21.928001 # Og 
485 162 5 0.651200 26.095676 45.197601 20.768002 # Cg 
486 162 10 -0.325600 26.095676 45.197601 19.608000 # Og 
487 163 10 -0.325600 26.095676 45.197601 22.305000 # Og 
488 163 5 0.651200 26.095676 45.197601 21.145000 # Cg 
489 163 10 -0.325600 26.095676 45.197601 19.985001 # Og 
490 164 10 -0.325600 26.095676 45.197601 22.682001 # Og 
491 164 5 0.651200 26.095676 45.197601 21.521999 # Cg 
492 164 10 -0.325600 26.095676 45.197601 20.362000 # Og 
493 165 10 -0.325600 26.095676 45.197601 23.059000 # Og 
494 165 5 0.651200 26.095676 45.197601 21.899000 # Cg 
495 165 10 -0.325600 26.095676 45.197601 20.739000 # Og 
496 166 10 -0.325600 26.095676 45.197601 23.437000 # Og 
497 166 5 0.651200 26.095676 45.197601 22.277000 # Cg 
498 166 10 -0.325600 26.095676 45.197601 21.117001 # Og 
499 167 10 -0.325600 26.095676 45.197601 23.814001 # Og 
500 167 5 0.651200 26.095676 45.197601 22.653999 # Cg 
501 167 10 -0.325600 26.095676 45.197601 21.493999 # Og 
502 168 10 -0.325600 26.095676 45.197601 24.191000 # Og 
503 168 5 0.651200 26.095676 45.197601 23.031000 # Cg 
504 168 10 -0.325600 26.095676 45.197601 21.871000 # Og 
505 169 10 -0.325600 26.095676 45.197601 24.568001 # Og 
506 169 5 0.651200 26.095676 45.197601 23.408001 # Cg 
507 169 10 -0.325600 26.095676 45.197601 22.248001 # Og 
508 170 10 -0.325600 26.095676 45.197601 24.945000 # Og 
509 170 5 0.651200 26.095676 45.197601 23.785000 # Cg 
510 170 10 -0.325600 26.095676 45.197601 22.625000 # Og 
511 171 10 -0.325600 26.095676 45.197601 25.322001 # Og 
512 171 5 0.651200 26.095676 45.197601 24.162001 # Cg 
513 171 10 -0.325600 26.095676 45.197601 23.002001 # Og 
514 172 10 -0.325600 26.095676 45.197601 25.699001 # Og 
515 172 5 0.651200 26.095676 45.197601 24.539001 # Cg 
516 172 10 -0.325600 26.095676 45.197601 23.379002 # Og 
517 173 10 -0.325600 26.095676 45.197601 26.076000 # Og 
518 173 5 0.651200 26.095676 45.197601 24.916000 # Cg 
519 173 10 -0.325600 26.095676 45.197601 23.756001 # Og 
520 174 10 -0.325600 26.095676 45.197601 26.453001 # Og 
521 174 5 0.651200 26.095676 45.197601 25.293001 # Cg 
522 174 10 -0.325600 26.095676 45.197601 24.132999 # Og 
523 175 10 -0.325600 26.095676 45.197601 26.830000 # Og 
524 175 5 0.651200 26.095676 45.197601 25.670000 # Cg 
525 175 10 -0.325600 26.095676 45.197601 24.510000 # Og 
526 176 10 -0.325600 26.095676 45.197601 27.207001 # Og 
527 176 5 0.651200 26.095676 45.197601 26.047001 # Cg 
528 176 10 -0.325600 26.095676 45.197601 24.887001 # Og 
529 177 10 -0.325600 26.095676 45.197601 0.057000 # Og 
530 177 5 0.651200 26.095676 45.197601 26.424000 # Cg 
531 177 10 -0.325600 26.095676 45.197601 25.264000 # Og 