LAMMPS data file. CGCMM style. atom_style full generated by VMD/TopoTools v1.5 on Mon Apr 24 10:59:24 PDT 2017
 2637 atoms
 30 bonds
 0 angles
 0 dihedrals
 0 impropers
 11 atom types
 1 bond types
 0 angle types
 0 dihedral types
 0 improper types
 0.451838 52.642840  xlo xhi
 0.325101 45.523500  ylo yhi
 -0.000000 27.527241  zlo zhi

# Pair Coeffs
#
# 1  Ca
# 2  Cb
# 3  Cc
# 4  Cd
# 5  Cg
# 6  H
# 7  Oa
# 8  Ob
# 9  Oc
# 10  Og
# 11  Zn

 Masses

 1 12.011000 # Ca
 2 12.011000 # Cb
 3 12.011000 # Cc
 4 12.011000 # Cd
 5 12.011000 # Cg
 6 1.008000 # H
 7 15.999000 # Oa
 8 15.999000 # Ob
 9 15.999000 # Oc
 10 15.999000 # Og
 11 65.379997 # Zn

 Atoms

1 1 10 -0.325600 52.190678 45.197601 19.524000 # Og 
2 1 5 0.651200 52.190678 45.197601 18.364000 # Cg 
3 1 10 -0.325600 52.190678 45.197601 17.204000 # Og 
4 2 10 -0.325600 52.190678 45.197601 26.406000 # Og 
5 2 5 0.651200 52.190678 45.197601 25.246000 # Cg 
6 2 10 -0.325600 52.190678 45.197601 24.086000 # Og 
7 3 10 -0.325600 52.190678 45.197601 5.761000 # Og 
8 3 5 0.651200 52.190678 45.197601 4.601000 # Cg 
9 3 10 -0.325600 52.190678 45.197601 3.441000 # Og 
10 4 10 -0.325600 52.190678 45.197601 12.643000 # Og 
11 4 5 0.651200 52.190678 45.197601 11.483000 # Cg 
12 4 10 -0.325600 52.190678 45.197601 10.323000 # Og 
13 5 10 -0.325600 52.190678 22.599600 19.524000 # Og 
14 5 5 0.651200 52.190678 22.599600 18.364000 # Cg 
15 5 10 -0.325600 52.190678 22.599600 17.204000 # Og 
16 6 10 -0.325600 52.190678 22.599600 26.406000 # Og 
17 6 5 0.651200 52.190678 22.599600 25.246000 # Cg 
18 6 10 -0.325600 52.190678 22.599600 24.086000 # Og 
19 7 10 -0.325600 52.190678 22.599600 5.761000 # Og 
20 7 5 0.651200 52.190678 22.599600 4.601000 # Cg 
21 7 10 -0.325600 52.190678 22.599600 3.441000 # Og 
22 8 10 -0.325600 52.190678 22.599600 12.643000 # Og 
23 8 5 0.651200 52.190678 22.599600 11.483000 # Cg 
24 8 10 -0.325600 52.190678 22.599600 10.323000 # Og 
25 9 10 -0.325600 26.095676 45.197601 19.524000 # Og 
26 9 5 0.651200 26.095676 45.197601 18.364000 # Cg 
27 9 10 -0.325600 26.095676 45.197601 17.204000 # Og 
28 10 10 -0.325600 26.095676 45.197601 26.406000 # Og 
29 10 5 0.651200 26.095676 45.197601 25.246000 # Cg 
30 10 10 -0.325600 26.095676 45.197601 24.086000 # Og 
31 11 10 -0.325600 26.095676 45.197601 5.761000 # Og 
32 11 5 0.651200 26.095676 45.197601 4.601000 # Cg 
33 11 10 -0.325600 26.095676 45.197601 3.441000 # Og 
34 12 10 -0.325600 26.095676 45.197601 12.643000 # Og 
35 12 5 0.651200 26.095676 45.197601 11.483000 # Cg 
36 12 10 -0.325600 26.095676 45.197601 10.323000 # Og 
37 13 10 -0.325600 26.095676 22.599600 19.524000 # Og 
38 13 5 0.651200 26.095676 22.599600 18.364000 # Cg 
39 13 10 -0.325600 26.095676 22.599600 17.204000 # Og 
40 14 10 -0.325600 26.095676 22.599600 26.406000 # Og 
41 14 5 0.651200 26.095676 22.599600 25.246000 # Cg 
42 14 10 -0.325600 26.095676 22.599600 24.086000 # Og 
43 15 10 -0.325600 26.095676 22.599600 5.761000 # Og 
44 15 5 0.651200 26.095676 22.599600 4.601000 # Cg 
45 15 10 -0.325600 26.095676 22.599600 3.441000 # Og 
46 16 11 1.209000 5.331000 7.994000 21.569241 # Zn LIG
47 16 11 1.209000 18.378000 30.594000 21.569241 # Zn LIG
48 16 11 1.209000 31.426001 7.994000 21.569241 # Zn LIG
49 16 11 1.209000 44.473999 30.594000 21.569241 # Zn LIG
50 16 1 0.841000 5.724000 9.170000 18.988241 # Ca LIG
51 16 1 0.841000 18.771999 31.768999 18.988241 # Ca LIG
52 16 1 0.841000 31.819000 9.170000 18.988241 # Ca LIG
53 16 1 0.841000 44.867001 31.768999 18.988241 # Ca LIG
54 16 2 -0.298000 6.104000 10.244000 18.040241 # Cb LIG
55 16 2 -0.298000 19.150999 32.842999 18.040241 # Cb LIG
56 16 2 -0.298000 32.199001 10.244000 18.040241 # Cb LIG
57 16 2 -0.298000 45.247002 32.842999 18.040241 # Cb LIG
58 16 4 -0.170000 6.937000 11.262000 18.520241 # Cd LIG
59 16 4 -0.170000 19.983999 33.861000 18.520241 # Cd LIG
60 16 4 -0.170000 33.032001 11.262000 18.520241 # Cd LIG
61 16 4 -0.170000 46.080002 33.861000 18.520241 # Cd LIG
62 16 6 0.172000 7.258000 11.221000 19.558241 # H LIG
63 16 6 0.172000 20.306000 33.820000 19.558241 # H LIG
64 16 6 0.172000 33.353001 11.221000 19.558241 # H LIG
65 16 6 0.172000 46.401001 33.820000 19.558241 # H LIG
66 16 8 -0.671000 6.191000 9.168000 20.176241 # Ob LIG
67 16 8 -0.671000 19.238001 31.767000 20.176241 # Ob LIG
68 16 8 -0.671000 32.285999 9.168000 20.176241 # Ob LIG
69 16 8 -0.671000 45.334000 31.767000 20.176241 # Ob LIG
70 16 7 -0.719000 4.915000 8.263000 18.567242 # Oa LIG
71 16 7 -0.719000 17.962999 30.862000 18.567242 # Oa LIG
72 16 7 -0.719000 31.010000 8.263000 18.567242 # Oa LIG
73 16 7 -0.719000 44.057999 30.862000 18.567242 # Oa LIG
74 16 9 -0.740000 8.191000 13.251000 18.306240 # Oc LIG
75 16 9 -0.740000 21.238001 35.849998 18.306240 # Oc LIG
76 16 9 -0.740000 34.285999 13.251000 18.306240 # Oc LIG
77 16 9 -0.740000 47.334000 35.849998 18.306240 # Oc LIG
78 16 11 1.209000 4.258000 6.452000 19.275242 # Zn LIG
79 16 11 1.209000 17.306000 29.052000 19.275242 # Zn LIG
80 16 11 1.209000 30.353001 6.452000 19.275242 # Zn LIG
81 16 11 1.209000 43.401001 29.052000 19.275242 # Zn LIG
82 16 11 1.209000 3.459000 8.152000 23.863241 # Zn LIG
83 16 11 1.209000 16.507000 30.750999 23.863241 # Zn LIG
84 16 11 1.209000 29.554001 8.152000 23.863241 # Zn LIG
85 16 11 1.209000 42.602001 30.750999 23.863241 # Zn LIG
86 16 11 1.209000 7.717000 14.605000 19.721241 # Zn LIG
87 16 11 1.209000 20.764999 37.203999 19.721241 # Zn LIG
88 16 11 1.209000 33.812000 14.605000 19.721241 # Zn LIG
89 16 11 1.209000 46.860001 37.203999 19.721241 # Zn LIG
90 16 7 -0.719000 4.698000 6.678000 23.155241 # Oa LIG
91 16 7 -0.719000 17.746000 29.277000 23.155241 # Oa LIG
92 16 7 -0.719000 30.794001 6.678000 23.155241 # Oa LIG
93 16 7 -0.719000 43.841000 29.277000 23.155241 # Oa LIG
94 16 7 -0.719000 3.434000 7.658000 20.861240 # Oa LIG
95 16 7 -0.719000 16.482000 30.257000 20.861240 # Oa LIG
96 16 7 -0.719000 29.530001 7.658000 20.861240 # Oa LIG
97 16 7 -0.719000 42.577000 30.257000 20.861240 # Oa LIG
98 16 9 -0.740000 4.857000 9.348000 22.984241 # Oc LIG
99 16 9 -0.740000 17.905001 31.947001 22.984241 # Oc LIG
100 16 9 -0.740000 30.952000 9.348000 22.984241 # Oc LIG
101 16 9 -0.740000 44.000000 31.947001 22.984241 # Oc LIG
102 16 9 -0.740000 5.667000 6.186000 20.690241 # Oc LIG
103 16 9 -0.740000 18.715000 28.785000 20.690241 # Oc LIG
104 16 9 -0.740000 31.763000 6.186000 20.690241 # Oc LIG
105 16 9 -0.740000 44.810001 28.785000 20.690241 # Oc LIG
106 16 3 0.376000 5.670000 10.272000 23.559240 # Cc LIG
107 16 3 0.376000 18.718000 32.870998 23.559240 # Cc LIG
108 16 3 0.376000 31.764999 10.272000 23.559240 # Cc LIG
109 16 3 0.376000 44.813000 32.870998 23.559240 # Cc LIG
110 16 1 0.841000 7.324000 13.429000 22.302240 # Ca LIG
111 16 1 0.841000 20.371000 36.028000 22.302240 # Ca LIG
112 16 1 0.841000 33.418999 13.429000 22.302240 # Ca LIG
113 16 1 0.841000 46.466999 36.028000 22.302240 # Ca LIG
114 16 2 -0.298000 6.944000 12.355000 23.250240 # Cb LIG
115 16 2 -0.298000 19.992001 34.953999 23.250240 # Cb LIG
116 16 2 -0.298000 33.039001 12.355000 23.250240 # Cb LIG
117 16 2 -0.298000 46.087002 34.953999 23.250240 # Cb LIG
118 16 3 0.376000 7.378000 12.327000 17.730240 # Cc LIG
119 16 3 0.376000 20.424999 34.925999 17.730240 # Cc LIG
120 16 3 0.376000 33.473000 12.327000 17.730240 # Cc LIG
121 16 3 0.376000 46.521000 34.925999 17.730240 # Cc LIG
122 16 4 -0.170000 6.111000 11.337000 22.770241 # Cd LIG
123 16 4 -0.170000 19.159000 33.936001 22.770241 # Cd LIG
124 16 4 -0.170000 32.206001 11.337000 22.770241 # Cd LIG
125 16 4 -0.170000 45.254002 33.936001 22.770241 # Cd LIG
126 16 6 0.172000 5.790000 11.379000 21.732241 # H LIG
127 16 6 0.172000 18.837000 33.978001 21.732241 # H LIG
128 16 6 0.172000 31.885000 11.379000 21.732241 # H LIG
129 16 6 0.172000 44.932999 33.978001 21.732241 # H LIG
130 16 8 -0.671000 6.857000 13.431000 21.113241 # Ob LIG
131 16 8 -0.671000 19.905001 36.029999 21.113241 # Ob LIG
132 16 8 -0.671000 32.952000 13.431000 21.113241 # Ob LIG
133 16 8 -0.671000 46.000000 36.029999 21.113241 # Ob LIG
134 16 7 -0.719000 8.133000 14.336000 22.723240 # Oa LIG
135 16 7 -0.719000 21.180000 36.936001 22.723240 # Oa LIG
136 16 7 -0.719000 34.228001 14.336000 22.723240 # Oa LIG
137 16 7 -0.719000 47.276001 36.936001 22.723240 # Oa LIG
138 16 11 1.209000 8.790000 16.146999 22.015240 # Zn LIG
139 16 11 1.209000 21.837000 38.745998 22.015240 # Zn LIG
140 16 11 1.209000 34.884998 16.146999 22.015240 # Zn LIG
141 16 11 1.209000 47.932999 38.745998 22.015240 # Zn LIG
142 16 11 1.209000 9.589000 14.447000 17.427240 # Zn LIG
143 16 11 1.209000 22.636000 37.046001 17.427240 # Zn LIG
144 16 11 1.209000 35.683998 14.447000 17.427240 # Zn LIG
145 16 11 1.209000 48.731998 37.046001 17.427240 # Zn LIG
146 16 7 -0.719000 8.349000 15.921000 18.135241 # Oa LIG
147 16 7 -0.719000 21.396999 38.520000 18.135241 # Oa LIG
148 16 7 -0.719000 34.445000 15.921000 18.135241 # Oa LIG
149 16 7 -0.719000 47.492001 38.520000 18.135241 # Oa LIG
150 16 7 -0.719000 9.613000 14.941000 20.429241 # Oa LIG
151 16 7 -0.719000 22.660999 37.540001 20.429241 # Oa LIG
152 16 7 -0.719000 35.709000 14.941000 20.429241 # Oa LIG
153 16 7 -0.719000 48.756001 37.540001 20.429241 # Oa LIG
154 16 9 -0.740000 7.380000 16.413000 20.600241 # Oc LIG
155 16 9 -0.740000 20.427999 39.013000 20.600241 # Oc LIG
156 16 9 -0.740000 33.476002 16.413000 20.600241 # Oc LIG
157 16 9 -0.740000 46.522999 39.013000 20.600241 # Oc LIG
158 16 11 1.209000 8.790000 31.212999 19.721241 # Zn LIG
159 16 11 1.209000 21.837000 8.614000 19.721241 # Zn LIG
160 16 11 1.209000 34.884998 31.212999 19.721241 # Zn LIG
161 16 11 1.209000 47.932999 8.614000 19.721241 # Zn LIG
162 16 11 1.209000 9.589000 29.513000 22.015240 # Zn LIG
163 16 11 1.209000 22.636000 6.914000 22.015240 # Zn LIG
164 16 11 1.209000 35.683998 29.513000 22.015240 # Zn LIG
165 16 11 1.209000 48.731998 6.914000 22.015240 # Zn LIG
166 16 7 -0.719000 9.613000 30.007000 18.135241 # Oa LIG
167 16 7 -0.719000 22.660999 7.408000 18.135241 # Oa LIG
168 16 7 -0.719000 35.709000 30.007000 18.135241 # Oa LIG
169 16 7 -0.719000 48.756001 7.408000 18.135241 # Oa LIG
170 16 7 -0.719000 8.349000 30.987000 22.723240 # Oa LIG
171 16 7 -0.719000 21.396999 8.388000 22.723240 # Oa LIG
172 16 7 -0.719000 34.445000 30.987000 22.723240 # Oa LIG
173 16 7 -0.719000 47.492001 8.388000 22.723240 # Oa LIG
174 16 7 -0.719000 4.698000 21.743999 20.861240 # Oa LIG
175 16 7 -0.719000 17.746000 44.342999 20.861240 # Oa LIG
176 16 7 -0.719000 30.794001 21.743999 20.861240 # Oa LIG
177 16 7 -0.719000 43.841000 44.342999 20.861240 # Oa LIG
178 16 9 -0.740000 5.667000 21.252001 18.396240 # Oc LIG
179 16 9 -0.740000 18.715000 43.851002 18.396240 # Oc LIG
180 16 9 -0.740000 31.763000 21.252001 18.396240 # Oc LIG
181 16 9 -0.740000 44.810001 43.851002 18.396240 # Oc LIG
182 16 11 1.209000 4.258000 21.518000 23.863241 # Zn LIG
183 16 11 1.209000 17.306000 44.118000 23.863241 # Zn LIG
184 16 11 1.209000 30.353001 21.518000 23.863241 # Zn LIG
185 16 11 1.209000 43.401001 44.118000 23.863241 # Zn LIG
186 16 11 1.209000 8.790000 1.081000 17.427240 # Zn LIG
187 16 11 1.209000 21.837000 23.680000 17.427240 # Zn LIG
188 16 11 1.209000 34.884998 1.081000 17.427240 # Zn LIG
189 16 11 1.209000 47.932999 23.680000 17.427240 # Zn LIG
190 16 7 -0.719000 8.349000 0.855000 20.429241 # Oa LIG
191 16 7 -0.719000 21.396999 23.454000 20.429241 # Oa LIG
192 16 7 -0.719000 34.445000 0.855000 20.429241 # Oa LIG
193 16 7 -0.719000 47.492001 23.454000 20.429241 # Oa LIG
194 16 9 -0.740000 7.380000 1.347000 22.894241 # Oc LIG
195 16 9 -0.740000 20.427999 23.947001 22.894241 # Oc LIG
196 16 9 -0.740000 33.476002 1.347000 22.894241 # Oc LIG
197 16 9 -0.740000 46.522999 23.947001 22.894241 # Oc LIG
198 16 9 -0.740000 4.857000 39.480000 18.396240 # Oc LIG
199 16 9 -0.740000 17.905001 16.881001 18.396240 # Oc LIG
200 16 9 -0.740000 30.952999 39.480000 18.396240 # Oc LIG
201 16 9 -0.740000 44.000000 16.881001 18.396240 # Oc LIG
202 16 11 1.209000 5.331000 38.126999 23.863241 # Zn LIG
203 16 11 1.209000 18.378000 15.527000 23.863241 # Zn LIG
204 16 11 1.209000 31.426001 38.126999 23.863241 # Zn LIG
205 16 11 1.209000 44.473999 15.527000 23.863241 # Zn LIG
206 16 1 0.841000 5.724000 39.301998 21.282242 # Ca LIG
207 16 1 0.841000 18.771999 16.702999 21.282242 # Ca LIG
208 16 1 0.841000 31.819000 39.301998 21.282242 # Ca LIG
209 16 1 0.841000 44.867001 16.702999 21.282242 # Ca LIG
210 16 2 -0.298000 6.104000 40.375999 20.334240 # Cb LIG
211 16 2 -0.298000 19.150999 17.777000 20.334240 # Cb LIG
212 16 2 -0.298000 32.199001 40.375999 20.334240 # Cb LIG
213 16 2 -0.298000 45.247002 17.777000 20.334240 # Cb LIG
214 16 3 0.376000 5.670000 40.403999 18.972240 # Cc LIG
215 16 3 0.376000 18.718000 17.805000 18.972240 # Cc LIG
216 16 3 0.376000 31.764999 40.403999 18.972240 # Cc LIG
217 16 3 0.376000 44.813000 17.805000 18.972240 # Cc LIG
218 16 4 -0.170000 6.937000 41.394001 20.814240 # Cd LIG
219 16 4 -0.170000 19.983999 18.795000 20.814240 # Cd LIG
220 16 4 -0.170000 33.032001 41.394001 20.814240 # Cd LIG
221 16 4 -0.170000 46.080002 18.795000 20.814240 # Cd LIG
222 16 6 0.172000 7.258000 41.353001 21.852242 # H LIG
223 16 6 0.172000 20.306000 18.754000 21.852242 # H LIG
224 16 6 0.172000 33.353001 41.353001 21.852242 # H LIG
225 16 6 0.172000 46.401001 18.754000 21.852242 # H LIG
226 16 8 -0.671000 6.191000 39.299999 22.470242 # Ob LIG
227 16 8 -0.671000 19.238001 16.701000 22.470242 # Ob LIG
228 16 8 -0.671000 32.285999 39.299999 22.470242 # Ob LIG
229 16 8 -0.671000 45.334000 16.701000 22.470242 # Ob LIG
230 16 7 -0.719000 4.915000 38.395000 20.861240 # Oa LIG
231 16 7 -0.719000 17.962999 15.796000 20.861240 # Oa LIG
232 16 7 -0.719000 31.010000 38.395000 20.861240 # Oa LIG
233 16 7 -0.719000 44.057999 15.796000 20.861240 # Oa LIG
234 16 2 -0.298000 6.944000 42.487000 18.662241 # Cb LIG
235 16 2 -0.298000 19.992001 19.888000 18.662241 # Cb LIG
236 16 2 -0.298000 33.039001 42.487000 18.662241 # Cb LIG
237 16 2 -0.298000 46.087002 19.888000 18.662241 # Cb LIG
238 16 3 0.376000 7.378000 42.459000 20.024240 # Cc LIG
239 16 3 0.376000 20.424999 19.860001 20.024240 # Cc LIG
240 16 3 0.376000 33.473000 42.459000 20.024240 # Cc LIG
241 16 3 0.376000 46.521000 19.860001 20.024240 # Cc LIG
242 16 4 -0.170000 6.111000 41.469002 18.182240 # Cd LIG
243 16 4 -0.170000 19.159000 18.870001 18.182240 # Cd LIG
244 16 4 -0.170000 32.206001 41.469002 18.182240 # Cd LIG
245 16 4 -0.170000 45.254002 18.870001 18.182240 # Cd LIG
246 16 7 -0.719000 8.133000 44.469002 18.135241 # Oa LIG
247 16 7 -0.719000 21.180000 21.868999 18.135241 # Oa LIG
248 16 7 -0.719000 34.228001 44.469002 18.135241 # Oa LIG
249 16 7 -0.719000 47.276001 21.868999 18.135241 # Oa LIG
250 16 9 -0.740000 8.191000 43.382999 20.600241 # Oc LIG
251 16 9 -0.740000 21.238001 20.784000 20.600241 # Oc LIG
252 16 9 -0.740000 34.285999 43.382999 20.600241 # Oc LIG
253 16 9 -0.740000 47.334000 20.784000 20.600241 # Oc LIG
254 16 11 1.209000 7.717000 44.737000 22.015240 # Zn LIG
255 16 11 1.209000 20.764999 22.138000 22.015240 # Zn LIG
256 16 11 1.209000 33.812000 44.737000 22.015240 # Zn LIG
257 16 11 1.209000 46.860001 22.138000 22.015240 # Zn LIG
258 16 11 1.209000 9.589000 44.578999 19.721241 # Zn LIG
259 16 11 1.209000 22.636000 21.980000 19.721241 # Zn LIG
260 16 11 1.209000 35.683998 44.578999 19.721241 # Zn LIG
261 16 11 1.209000 48.731998 21.980000 19.721241 # Zn LIG
262 16 9 -0.740000 5.667000 36.318001 22.984241 # Oc LIG
263 16 9 -0.740000 18.715000 13.719000 22.984241 # Oc LIG
264 16 9 -0.740000 31.763000 36.318001 22.984241 # Oc LIG
265 16 9 -0.740000 44.810001 13.719000 22.984241 # Oc LIG
266 16 1 0.841000 7.324000 43.561001 17.714241 # Ca LIG
267 16 1 0.841000 20.371000 20.962000 17.714241 # Ca LIG
268 16 1 0.841000 33.418999 43.561001 17.714241 # Ca LIG
269 16 1 0.841000 46.466999 20.962000 17.714241 # Ca LIG
270 16 8 -0.671000 6.857000 43.563999 23.407242 # Ob LIG
271 16 8 -0.671000 19.905001 20.964001 23.407242 # Ob LIG
272 16 8 -0.671000 32.952000 43.563999 23.407242 # Ob LIG
273 16 8 -0.671000 46.000000 20.964001 23.407242 # Ob LIG
274 16 7 -0.719000 9.613000 45.073002 22.723240 # Oa LIG
275 16 7 -0.719000 22.660999 22.474001 22.723240 # Oa LIG
276 16 7 -0.719000 35.709000 45.073002 22.723240 # Oa LIG
277 16 7 -0.719000 48.756001 22.474001 22.723240 # Oa LIG
278 16 11 1.209000 3.459000 38.285000 19.275242 # Zn LIG
279 16 11 1.209000 16.507000 15.685000 19.275242 # Zn LIG
280 16 11 1.209000 29.554001 38.285000 19.275242 # Zn LIG
281 16 11 1.209000 42.602001 15.685000 19.275242 # Zn LIG
282 16 7 -0.719000 4.698000 36.810001 18.567242 # Oa LIG
283 16 7 -0.719000 17.746000 14.211000 18.567242 # Oa LIG
284 16 7 -0.719000 30.794001 36.810001 18.567242 # Oa LIG
285 16 7 -0.719000 43.841000 14.211000 18.567242 # Oa LIG
286 16 11 1.209000 4.258000 36.584999 21.569241 # Zn LIG
287 16 11 1.209000 17.306000 13.985000 21.569241 # Zn LIG
288 16 11 1.209000 30.353001 36.584999 21.569241 # Zn LIG
289 16 11 1.209000 43.401001 13.985000 21.569241 # Zn LIG
290 16 7 -0.719000 3.434000 37.790001 23.155241 # Oa LIG
291 16 7 -0.719000 16.482000 15.191000 23.155241 # Oa LIG
292 16 7 -0.719000 29.530001 37.790001 23.155241 # Oa LIG
293 16 7 -0.719000 42.577000 15.191000 23.155241 # Oa LIG
294 16 9 -0.740000 2.523000 22.131001 22.984241 # Oc LIG
295 16 9 -0.740000 15.571000 44.730999 22.984241 # Oc LIG
296 16 9 -0.740000 28.618999 22.131001 22.984241 # Oc LIG
297 16 9 -0.740000 41.666000 44.730999 22.984241 # Oc LIG
298 16 3 0.376000 1.317000 22.372999 23.559240 # Cc LIG
299 16 3 0.376000 14.364000 44.972000 23.559240 # Cc LIG
300 16 3 0.376000 27.412001 22.372999 23.559240 # Cc LIG
301 16 3 0.376000 40.459999 44.972000 23.559240 # Cc LIG
302 16 1 0.841000 10.803000 44.826000 22.302240 # Ca LIG
303 16 1 0.841000 23.851000 22.226999 22.302240 # Ca LIG
304 16 1 0.841000 36.898998 44.826000 22.302240 # Ca LIG
305 16 1 0.841000 49.945999 22.226999 22.302240 # Ca LIG
306 16 2 -0.298000 11.923000 45.034000 23.250240 # Cb LIG
307 16 2 -0.298000 24.971001 22.434999 23.250240 # Cb LIG
308 16 2 -0.298000 38.019001 45.034000 23.250240 # Cb LIG
309 16 2 -0.298000 51.066002 22.434999 23.250240 # Cb LIG
310 16 4 -0.170000 0.174000 22.223000 22.770241 # Cd LIG
311 16 4 -0.170000 13.222000 44.821999 22.770241 # Cd LIG
312 16 4 -0.170000 26.268999 22.223000 22.770241 # Cd LIG
313 16 4 -0.170000 39.317001 44.821999 22.770241 # Cd LIG
314 16 6 0.172000 0.299000 21.924000 21.732241 # H LIG
315 16 6 0.172000 13.346000 44.522999 21.732241 # H LIG
316 16 6 0.172000 26.393999 21.924000 21.732241 # H LIG
317 16 6 0.172000 39.442001 44.522999 21.732241 # H LIG
318 16 8 -0.671000 11.035000 44.421001 21.113241 # Ob LIG
319 16 8 -0.671000 24.083000 21.822001 21.113241 # Ob LIG
320 16 8 -0.671000 37.130001 44.421001 21.113241 # Ob LIG
321 16 8 -0.671000 50.178001 21.822001 21.113241 # Ob LIG
322 16 3 0.376000 6.061000 35.152000 23.559240 # Cc LIG
323 16 3 0.376000 19.108999 12.553000 23.559240 # Cc LIG
324 16 3 0.376000 32.155998 35.152000 23.559240 # Cc LIG
325 16 3 0.376000 45.203999 12.553000 23.559240 # Cc LIG
326 16 1 0.841000 7.968000 32.140999 22.302240 # Ca LIG
327 16 1 0.841000 21.016001 9.542000 22.302240 # Ca LIG
328 16 1 0.841000 34.063999 32.140999 22.302240 # Ca LIG
329 16 1 0.841000 47.111000 9.542000 22.302240 # Ca LIG
330 16 2 -0.298000 7.228000 33.007000 23.250240 # Cb LIG
331 16 2 -0.298000 20.275999 10.408000 23.250240 # Cb LIG
332 16 2 -0.298000 33.323002 33.007000 23.250240 # Cb LIG
333 16 2 -0.298000 46.370998 10.408000 23.250240 # Cb LIG
334 16 4 -0.170000 6.763000 34.237000 22.770241 # Cd LIG
335 16 4 -0.170000 19.809999 11.638000 22.770241 # Cd LIG
336 16 4 -0.170000 32.858002 34.237000 22.770241 # Cd LIG
337 16 4 -0.170000 45.905998 11.638000 22.770241 # Cd LIG
338 16 6 0.172000 6.959000 34.494999 21.732241 # H LIG
339 16 6 0.172000 20.007000 11.896000 21.732241 # H LIG
340 16 6 0.172000 33.055000 34.494999 21.732241 # H LIG
341 16 6 0.172000 46.102001 11.896000 21.732241 # H LIG
342 16 8 -0.671000 8.203000 32.543999 21.113241 # Ob LIG
343 16 8 -0.671000 21.250999 9.945000 21.113241 # Ob LIG
344 16 8 -0.671000 34.299000 32.543999 21.113241 # Ob LIG
345 16 8 -0.671000 47.346001 9.945000 21.113241 # Ob LIG
346 16 9 -0.740000 10.524000 30.600000 20.600241 # Oc LIG
347 16 9 -0.740000 23.572001 8.001000 20.600241 # Oc LIG
348 16 9 -0.740000 36.619999 30.600000 20.600241 # Oc LIG
349 16 9 -0.740000 49.667000 8.001000 20.600241 # Oc LIG
350 16 1 0.841000 5.079000 35.655998 18.988241 # Ca LIG
351 16 1 0.841000 18.127001 13.057000 18.988241 # Ca LIG
352 16 1 0.841000 31.174999 35.655998 18.988241 # Ca LIG
353 16 1 0.841000 44.222000 13.057000 18.988241 # Ca LIG
354 16 2 -0.298000 5.820000 34.790001 18.040241 # Cb LIG
355 16 2 -0.298000 18.867001 12.191000 18.040241 # Cb LIG
356 16 2 -0.298000 31.915001 34.790001 18.040241 # Cb LIG
357 16 2 -0.298000 44.963001 12.191000 18.040241 # Cb LIG
358 16 4 -0.170000 6.285000 33.560001 18.520241 # Cd LIG
359 16 4 -0.170000 19.333000 10.961000 18.520241 # Cd LIG
360 16 4 -0.170000 32.380001 33.560001 18.520241 # Cd LIG
361 16 4 -0.170000 45.428001 10.961000 18.520241 # Cd LIG
362 16 6 0.172000 6.088000 33.301998 19.558241 # H LIG
363 16 6 0.172000 19.136000 10.703000 19.558241 # H LIG
364 16 6 0.172000 32.183998 33.301998 19.558241 # H LIG
365 16 6 0.172000 45.230999 10.703000 19.558241 # H LIG
366 16 8 -0.671000 4.844000 35.252998 20.176241 # Ob LIG
367 16 8 -0.671000 17.892000 12.654000 20.176241 # Ob LIG
368 16 8 -0.671000 30.940001 35.252998 20.176241 # Ob LIG
369 16 8 -0.671000 43.987000 12.654000 20.176241 # Ob LIG
370 16 9 -0.740000 2.523000 37.198002 20.690241 # Oc LIG
371 16 9 -0.740000 15.571000 14.598000 20.690241 # Oc LIG
372 16 9 -0.740000 28.618999 37.198002 20.690241 # Oc LIG
373 16 9 -0.740000 41.666000 14.598000 20.690241 # Oc LIG
374 16 8 -0.671000 2.013000 38.443001 17.882240 # Ob LIG
375 16 8 -0.671000 15.060000 15.843000 17.882240 # Ob LIG
376 16 8 -0.671000 28.108000 38.443001 17.882240 # Ob LIG
377 16 8 -0.671000 41.155998 15.843000 17.882240 # Ob LIG
378 16 1 0.841000 2.244000 38.036999 23.576241 # Ca LIG
379 16 1 0.841000 15.292000 15.438000 23.576241 # Ca LIG
380 16 1 0.841000 28.340000 38.036999 23.576241 # Ca LIG
381 16 1 0.841000 41.387001 15.438000 23.576241 # Ca LIG
382 16 2 -0.298000 1.124000 37.828999 22.628241 # Cb LIG
383 16 2 -0.298000 14.172000 15.230000 22.628241 # Cb LIG
384 16 2 -0.298000 27.219999 37.828999 22.628241 # Cb LIG
385 16 2 -0.298000 40.266998 15.230000 22.628241 # Cb LIG
386 16 3 0.376000 1.317000 37.438999 21.265240 # Cc LIG
387 16 3 0.376000 14.364000 14.840000 21.265240 # Cc LIG
388 16 3 0.376000 27.412001 37.438999 21.265240 # Cc LIG
389 16 3 0.376000 40.459999 14.840000 21.265240 # Cc LIG
390 16 4 -0.170000 12.874000 15.442000 23.108240 # Cd LIG
391 16 4 -0.170000 25.921000 38.041000 23.108240 # Cd LIG
392 16 4 -0.170000 38.969002 15.442000 23.108240 # Cd LIG
393 16 4 -0.170000 52.016998 38.041000 23.108240 # Cd LIG
394 16 6 0.172000 12.749000 15.741000 17.264240 # H LIG
395 16 6 0.172000 25.797001 38.341000 17.264240 # H LIG
396 16 6 0.172000 38.844002 15.741000 17.264240 # H LIG
397 16 6 0.172000 51.891998 38.341000 17.264240 # H LIG
398 16 1 0.841000 10.803000 14.694000 20.008240 # Ca LIG
399 16 1 0.841000 23.851000 37.292999 20.008240 # Ca LIG
400 16 1 0.841000 36.898998 14.694000 20.008240 # Ca LIG
401 16 1 0.841000 49.945999 37.292999 20.008240 # Ca LIG
402 16 2 -0.298000 11.923000 14.902000 20.956242 # Cb LIG
403 16 2 -0.298000 24.971001 37.500999 20.956242 # Cb LIG
404 16 2 -0.298000 38.019001 14.902000 20.956242 # Cb LIG
405 16 2 -0.298000 51.066002 37.500999 20.956242 # Cb LIG
406 16 3 0.376000 11.731000 15.292000 22.318241 # Cc LIG
407 16 3 0.376000 24.778000 37.890999 22.318241 # Cc LIG
408 16 3 0.376000 37.826000 15.292000 22.318241 # Cc LIG
409 16 3 0.376000 50.874001 37.890999 22.318241 # Cc LIG
410 16 4 -0.170000 0.174000 37.289001 20.476242 # Cd LIG
411 16 4 -0.170000 13.222000 14.690000 20.476242 # Cd LIG
412 16 4 -0.170000 26.268999 37.289001 20.476242 # Cd LIG
413 16 4 -0.170000 39.317001 14.690000 20.476242 # Cd LIG
414 16 6 0.172000 0.299000 36.990002 19.438240 # H LIG
415 16 6 0.172000 13.346000 14.391000 19.438240 # H LIG
416 16 6 0.172000 26.393999 36.990002 19.438240 # H LIG
417 16 6 0.172000 39.442001 14.391000 19.438240 # H LIG
418 16 8 -0.671000 11.035000 14.289000 18.819241 # Ob LIG
419 16 8 -0.671000 24.083000 36.888000 18.819241 # Ob LIG
420 16 8 -0.671000 37.130001 14.289000 18.819241 # Ob LIG
421 16 8 -0.671000 50.178001 36.888000 18.819241 # Ob LIG
422 16 9 -0.740000 10.524000 15.534000 22.894241 # Oc LIG
423 16 9 -0.740000 23.572001 38.132999 22.894241 # Oc LIG
424 16 9 -0.740000 36.619999 15.534000 22.894241 # Oc LIG
425 16 9 -0.740000 49.667000 38.132999 22.894241 # Oc LIG
426 16 8 -0.671000 4.844000 5.121000 17.882240 # Ob LIG
427 16 8 -0.671000 17.892000 27.719999 17.882240 # Ob LIG
428 16 8 -0.671000 30.940001 5.121000 17.882240 # Ob LIG
429 16 8 -0.671000 43.987000 27.719999 17.882240 # Ob LIG
430 16 9 -0.740000 2.523000 7.065000 18.396240 # Oc LIG
431 16 9 -0.740000 15.571000 29.664000 18.396240 # Oc LIG
432 16 9 -0.740000 28.618999 7.065000 18.396240 # Oc LIG
433 16 9 -0.740000 41.666000 29.664000 18.396240 # Oc LIG
434 16 1 0.841000 5.079000 5.524000 23.576241 # Ca LIG
435 16 1 0.841000 18.127001 28.122999 23.576241 # Ca LIG
436 16 1 0.841000 31.174999 5.524000 23.576241 # Ca LIG
437 16 1 0.841000 44.222000 28.122999 23.576241 # Ca LIG
438 16 2 -0.298000 5.820000 4.658000 22.628241 # Cb LIG
439 16 2 -0.298000 18.867001 27.257000 22.628241 # Cb LIG
440 16 2 -0.298000 31.915001 4.658000 22.628241 # Cb LIG
441 16 2 -0.298000 44.963001 27.257000 22.628241 # Cb LIG
442 16 3 0.376000 6.061000 5.020000 21.265240 # Cc LIG
443 16 3 0.376000 19.108999 27.618999 21.265240 # Cc LIG
444 16 3 0.376000 32.155998 5.020000 21.265240 # Cc LIG
445 16 3 0.376000 45.203999 27.618999 21.265240 # Cc LIG
446 16 4 -0.170000 6.285000 3.428000 23.108240 # Cd LIG
447 16 4 -0.170000 19.333000 26.027000 23.108240 # Cd LIG
448 16 4 -0.170000 32.380001 3.428000 23.108240 # Cd LIG
449 16 4 -0.170000 45.428001 26.027000 23.108240 # Cd LIG
450 16 6 0.172000 6.088000 3.170000 17.264240 # H LIG
451 16 6 0.172000 19.136000 25.768999 17.264240 # H LIG
452 16 6 0.172000 32.183998 3.170000 17.264240 # H LIG
453 16 6 0.172000 45.230999 25.768999 17.264240 # H LIG
454 16 1 0.841000 7.968000 2.009000 20.008240 # Ca LIG
455 16 1 0.841000 21.016001 24.608000 20.008240 # Ca LIG
456 16 1 0.841000 34.063999 2.009000 20.008240 # Ca LIG
457 16 1 0.841000 47.111000 24.608000 20.008240 # Ca LIG
458 16 2 -0.298000 7.228000 2.875000 20.956242 # Cb LIG
459 16 2 -0.298000 20.275999 25.474001 20.956242 # Cb LIG
460 16 2 -0.298000 33.323002 2.875000 20.956242 # Cb LIG
461 16 2 -0.298000 46.370998 25.474001 20.956242 # Cb LIG
462 16 3 0.376000 6.987000 2.513000 22.318241 # Cc LIG
463 16 3 0.376000 20.034000 25.112000 22.318241 # Cc LIG
464 16 3 0.376000 33.082001 2.513000 22.318241 # Cc LIG
465 16 3 0.376000 46.130001 25.112000 22.318241 # Cc LIG
466 16 4 -0.170000 6.763000 4.105000 20.476242 # Cd LIG
467 16 4 -0.170000 19.809999 26.704000 20.476242 # Cd LIG
468 16 4 -0.170000 32.858002 4.105000 20.476242 # Cd LIG
469 16 4 -0.170000 45.905998 26.704000 20.476242 # Cd LIG
470 16 6 0.172000 6.959000 4.363000 19.438240 # H LIG
471 16 6 0.172000 20.007000 26.962000 19.438240 # H LIG
472 16 6 0.172000 33.055000 4.363000 19.438240 # H LIG
473 16 6 0.172000 46.102001 26.962000 19.438240 # H LIG
474 16 8 -0.671000 8.203000 2.412000 18.819241 # Ob LIG
475 16 8 -0.671000 21.250999 25.011000 18.819241 # Ob LIG
476 16 8 -0.671000 34.299000 2.412000 18.819241 # Ob LIG
477 16 8 -0.671000 47.346001 25.011000 18.819241 # Ob LIG
478 16 1 0.841000 2.244000 7.905000 21.282242 # Ca LIG
479 16 1 0.841000 15.292000 30.504000 21.282242 # Ca LIG
480 16 1 0.841000 28.340000 7.905000 21.282242 # Ca LIG
481 16 1 0.841000 41.387001 30.504000 21.282242 # Ca LIG
482 16 2 -0.298000 1.124000 7.697000 20.334240 # Cb LIG
483 16 2 -0.298000 14.172000 30.296000 20.334240 # Cb LIG
484 16 2 -0.298000 27.219999 7.697000 20.334240 # Cb LIG
485 16 2 -0.298000 40.266998 30.296000 20.334240 # Cb LIG
486 16 3 0.376000 1.317000 7.307000 18.972240 # Cc LIG
487 16 3 0.376000 14.364000 29.906000 18.972240 # Cc LIG
488 16 3 0.376000 27.412001 7.307000 18.972240 # Cc LIG
489 16 3 0.376000 40.459999 29.906000 18.972240 # Cc LIG
490 16 4 -0.170000 12.874000 30.507999 20.814240 # Cd LIG
491 16 4 -0.170000 25.921000 7.909000 20.814240 # Cd LIG
492 16 4 -0.170000 38.969002 30.507999 20.814240 # Cd LIG
493 16 4 -0.170000 52.016998 7.909000 20.814240 # Cd LIG
494 16 6 0.172000 12.749000 30.808001 21.852242 # H LIG
495 16 6 0.172000 25.797001 8.208000 21.852242 # H LIG
496 16 6 0.172000 38.844002 30.808001 21.852242 # H LIG
497 16 6 0.172000 51.891998 8.208000 21.852242 # H LIG
498 16 8 -0.671000 2.013000 8.310000 22.470242 # Ob LIG
499 16 8 -0.671000 15.060000 30.910000 22.470242 # Ob LIG
500 16 8 -0.671000 28.108000 8.310000 22.470242 # Ob LIG
501 16 8 -0.671000 41.155998 30.910000 22.470242 # Ob LIG
502 16 2 -0.298000 11.923000 29.968000 18.662241 # Cb LIG
503 16 2 -0.298000 24.971001 7.369000 18.662241 # Cb LIG
504 16 2 -0.298000 38.019001 29.968000 18.662241 # Cb LIG
505 16 2 -0.298000 51.066002 7.369000 18.662241 # Cb LIG
506 16 3 0.376000 11.731000 30.358000 20.024240 # Cc LIG
507 16 3 0.376000 24.778999 7.759000 20.024240 # Cc LIG
508 16 3 0.376000 37.826000 30.358000 20.024240 # Cc LIG
509 16 3 0.376000 50.874001 7.759000 20.024240 # Cc LIG
510 16 4 -0.170000 0.174000 7.157000 18.182240 # Cd LIG
511 16 4 -0.170000 13.222000 29.756001 18.182240 # Cd LIG
512 16 4 -0.170000 26.268999 7.157000 18.182240 # Cd LIG
513 16 4 -0.170000 39.317001 29.756001 18.182240 # Cd LIG
514 16 1 0.841000 10.803000 29.760000 17.714241 # Ca LIG
515 16 1 0.841000 23.851000 7.161000 17.714241 # Ca LIG
516 16 1 0.841000 36.898998 29.760000 17.714241 # Ca LIG