Created on Wed Sep 21 11:26:40 2016 

        1104 atoms
        1224 bonds
        1968 angles
        2976 dihedrals
        1872 impropers

           3 atom types
           3 bond types
           1 angle types
           2 dihedral types
           1 improper types
           0.000000  42.681000 xlo xhi
           0.000000  42.681000 ylo yhi
           0.000000  42.681000 zlo zhi
           0.000000   0.000000   0.000000 xy xz yz

Masses

    1  12.0107 # C_R
    2   1.0079 # H_
    3  14.0067 # N_R

Bond Coeffs

    1      525.000000        1.390000 # C_R C_R
    2      350.000000        1.020000 # C_R H_
    3      525.000000        1.340000 # C_R N_R

Angle Coeffs

    1       66.666667      120.000000 # C_R C_R C_R

Dihedral Coeffs

    1        3.125000               2             540        0.000000 # C_R C_R C_R H_
    2        6.250000               2             540        0.000000 # C_R C_R N_R C_R

Improper Coeffs

    1       13.333333        0.000000  # C_R C_R C_R C_R

Pair Coeffs

    1        0.095100        3.472990 # C_R C_R
    2        0.015200        2.846421 # H_ H_
    3        0.077400        3.262560 # N_R N_R

Atoms

       1      444        1     0.00000   21.18634   21.18634    8.96717
       2      444        1     0.00000   20.41686   20.41686    8.08242
       3      444        1     0.00000   20.56625   20.56625    6.69302
       4      444        1     0.00000    0.15229    0.15229    6.19299
       5      444        1     0.00000    0.92840    0.92840    7.07064
       6      444        1     0.00000    0.77135    0.77135    8.45545
       7      444        2     0.00000    0.26767    0.26767    5.12157
       8      444        2     0.00000    1.36976    1.36976    9.13247
       9      444        2     0.00000   19.70306   19.70306    8.47681
      10      444        1     0.00000   19.76030   19.76030    5.75062
      11      444        1     0.00000    1.90848    1.90848    6.55476
      12      444        1     0.00000   21.01222   21.01222   10.42547
      13      444        2     0.00000   20.29243   20.29243   10.80280
      14      444        2     0.00000    2.49946    2.49946    7.24764
      15      444        2     0.00000   19.88911   19.88911    4.68040
      16      444        1     0.00000    0.15416   21.18634   12.67705
      17      444        1     0.00000    0.92364   20.41686   13.56178
      18      444        1     0.00000    0.77425   20.56625   14.95118
      19      444        1     0.00000   21.18821    0.15229   15.45120
      20      444        1     0.00000   20.41208    0.92840   14.57356
      21      444        1     0.00000   20.56915    0.77135   13.18877
      22      444        2     0.00000   21.07283    0.26767   16.52263
      23      444        2     0.00000   19.97074    1.36976   12.51174
      24      444        2     0.00000    1.63744   19.70306   13.16741
      25      444        1     0.00000    1.58020   19.76030   15.89359
      26      444        1     0.00000   19.43202    1.90848   15.08946
      27      444        1     0.00000    0.32828   21.01222   11.21874
      28      444        2     0.00000    1.04807   20.29243   10.84142
      29      444        2     0.00000   18.84104    2.49946   14.39658
      30      444        2     0.00000    1.45139   19.88911   16.96380
      31      444        1     0.00000    8.81531   21.18634   21.33820
      32      444        1     0.00000    7.93056   20.41686   20.56872
      33      444        1     0.00000    6.54118   20.56625   20.71810
      34      444        1     0.00000    6.04113    0.15229    0.30414
      35      444        1     0.00000    6.91880    0.92842    1.08026
      36      444        1     0.00000    8.30359    0.77135    0.92321
      37      444        2     0.00000    4.96971    0.26767    0.41953
      38      444        2     0.00000    8.98062    1.36976    1.52162
      39      444        2     0.00000    8.32495   19.70306   19.85490
      40      444        1     0.00000    5.59877   19.76030   19.91216
      41      444        1     0.00000    6.40290    1.90850    2.06034
      42      444        1     0.00000   10.27362   21.01222   21.16408
      43      444        2     0.00000   10.65094   20.29243   20.44428
      44      444        2     0.00000    7.09578    2.49946    2.65132
      45      444        2     0.00000    4.52856   19.88911   20.04097
      46      444        1     0.00000   12.52519    0.15416   21.33820
      47      444        1     0.00000   13.40994    0.92364   20.56872
      48      444        1     0.00000   14.79934    0.77425   20.71810
      49      444        1     0.00000   15.29937   21.18821    0.30414
      50      444        1     0.00000   14.42172   20.41210    1.08026
      51      444        1     0.00000   13.03691   20.56915    0.92321
      52      444        2     0.00000   16.37079   21.07283    0.41953
      53      444        2     0.00000   12.35988   19.97074    1.52162
      54      444        2     0.00000   13.01555    1.63746   19.85490
      55      444        1     0.00000   15.74173    1.58020   19.91216
      56      444        1     0.00000   14.93760   19.43202    2.06034
      57      444        1     0.00000   11.06688    0.32828   21.16408
      58      444        2     0.00000   10.68956    1.04807   20.44428
      59      444        2     0.00000   14.24472   18.84104    2.65132
      60      444        2     0.00000   16.81196    1.45139   20.04097
      61      444        1     0.00000   21.18634    8.81531   21.33820
      62      444        1     0.00000   20.41686    7.93056   20.56872
      63      444        1     0.00000   20.56625    6.54118   20.71810
      64      444        1     0.00000    0.15229    6.04115    0.30414
      65      444        1     0.00000    0.92842    6.91880    1.08026
      66      444        1     0.00000    0.77135    8.30359    0.92321
      67      444        2     0.00000    0.26767    4.96971    0.41953
      68      444        2     0.00000    1.36976    8.98062    1.52162
      69      444        2     0.00000   19.70306    8.32495   19.85490
      70      444        1     0.00000   19.76030    5.59877   19.91216
      71      444        1     0.00000    1.90850    6.40290    2.06034
      72      444        1     0.00000   21.01222   10.27362   21.16408
      73      444        2     0.00000   20.29243   10.65094   20.44428
      74      444        2     0.00000    2.49946    7.09578    2.65130
      75      444        2     0.00000   19.88911    4.52856   20.04097
      76      444        1     0.00000   21.18634   12.52519    0.30602
      77      444        1     0.00000   20.41686   13.40994    1.07548
      78      444        1     0.00000   20.56625   14.79934    0.92611
      79      444        1     0.00000    0.15229   15.29937   21.34007
      80      444        1     0.00000    0.92842   14.42172   20.56394
      81      444        1     0.00000    0.77135   13.03691   20.72101
      82      444        2     0.00000    0.26767   16.37079   21.22469
      83      444        2     0.00000    1.36976   12.35988   20.12258
      84      444        2     0.00000   19.70306   13.01555    1.78929
      85      444        1     0.00000   19.76030   15.74173    1.73206
      86      444        1     0.00000    1.90850   14.93760   19.58386
      87      444        1     0.00000   21.01222   11.06688    0.48014
      88      444        2     0.00000   20.29243   10.68956    1.19993
      89      444        2     0.00000    2.49946   14.24472   18.99290
      90      444        2     0.00000   19.88911   16.81196    1.60323
      91      444        1     0.00000    4.39414    2.54996    2.98477
      92      444        1     0.00000    3.68375    2.12737    4.11771
      93      444        1     0.00000    2.54996    2.83291    4.54597
      94      444        1     0.00000    2.12737    3.96585    3.83561
      95      444        1     0.00000    2.83291    4.39414    2.70181
      96      444        1     0.00000    3.96585    3.68378    2.27923
      97      444        2     0.00000    1.25188    4.51273    4.16424
      98      444        2     0.00000    4.51273    4.01240    1.40374
      99      444        2     0.00000    4.01240    1.25188    4.66459
     100      444        3     0.00000    5.53923    1.83469    2.55495
     101      444        3     0.00000    1.83469    2.40309    5.69108
     102      444        3     0.00000    2.40309    5.53923    1.98654
     103      444        1     0.00000   16.94636   18.79054    2.98477
     104      444        1     0.00000   17.65675   19.21313    4.11771
     105      444        1     0.00000   18.79054   18.50759    4.54597
     106      444        1     0.00000   19.21313   17.37465    3.83561
     107      444        1     0.00000   18.50759   16.94636    2.70181
     108      444        1     0.00000   17.37465   17.65672    2.27923
     109      444        2     0.00000   20.08862   16.82777    4.16424
     110      444        2     0.00000   16.82777   17.32810    1.40374
     111      444        2     0.00000   17.32810   20.08862    4.66459
     112      444        3     0.00000   15.80127   19.50581    2.55495
     113      444        3     0.00000   19.50581   18.93741    5.69108
     114      444        3     0.00000   18.93741   15.80127    1.98654
     115      444        1     0.00000   16.94636    2.54996   18.65945
     116      444        1     0.00000   17.65675    2.12737   17.52650
     117      444        1     0.00000   18.79054    2.83291   17.09822
     118      444        1     0.00000   19.21313    3.96585   17.80860
     119      444        1     0.00000   18.50759    4.39414   18.94240
     120      444        1     0.00000   17.37465    3.68378   19.36497
     121      444        2     0.00000   20.08862    4.51273   17.47996
     122      444        2     0.00000   16.82777    4.01240   20.24048
     123      444        2     0.00000   17.32810    1.25188   16.97963
     124      444        3     0.00000   15.80127    1.83469   19.08927
     125      444        3     0.00000   19.50581    2.40309   15.95313
     126      444        3     0.00000   18.93741    5.53923   19.65767
     127      444        1     0.00000    4.39414   18.79054   18.65945
     128      444        1     0.00000    3.68375   19.21313   17.52650
     129      444        1     0.00000    2.54996   18.50759   17.09822
     130      444        1     0.00000    2.12737   17.37465   17.80858
     131      444        1     0.00000    2.83291   16.94636   18.94240
     132      444        1     0.00000    3.96585   17.65672   19.36497
     133      444        2     0.00000    1.25188   16.82777   17.47996
     134      444        2     0.00000    4.51273   17.32810   20.24048
     135      444        2     0.00000    4.01240   20.08862   16.97963
     136      444        3     0.00000    5.53923   19.50581   19.08927
     137      444        3     0.00000    1.83469   18.93741   15.95313
     138      444        3     0.00000    2.40309   15.80127   19.65767
     139      444        1     0.00000   21.18634   21.18634   30.30767
     140      444        1     0.00000   20.41686   20.41686   29.42292
     141      444        1     0.00000   20.56625   20.56625   28.03352
     142      444        1     0.00000    0.15229    0.15229   27.53349
     143      444        1     0.00000    0.92840    0.92840   28.41114
     144      444        1     0.00000    0.77135    0.77135   29.79595
     145      444        2     0.00000    0.26767    0.26767   26.46207
     146      444        2     0.00000    1.36976    1.36976   30.47297
     147      444        2     0.00000   19.70306   19.70306   29.81731
     148      444        1     0.00000   19.76030   19.76030   27.09112
     149      444        1     0.00000    1.90848    1.90848   27.89526
     150      444        1     0.00000   21.01222   21.01222   31.76597
     151      444        2     0.00000   20.29243   20.29243   32.14330
     152      444        2     0.00000    2.49946    2.49946   28.58814
     153      444        2     0.00000   19.88911   19.88911   26.02090
     154      444        1     0.00000    0.15416   21.18634   34.01755
     155      444        1     0.00000    0.92364   20.41686   34.90228
     156      444        1     0.00000    0.77425   20.56625   36.29168
     157      444        1     0.00000   21.18821    0.15229   36.79170
     158      444        1     0.00000   20.41208    0.92840   35.91406
     159      444        1     0.00000   20.56915    0.77135   34.52927
     160      444        2     0.00000   21.07283    0.26767   37.86313
     161      444        2     0.00000   19.97074    1.36976   33.85224
     162      444        2     0.00000    1.63744   19.70306   34.50791
     163      444        1     0.00000    1.58020   19.76030   37.23409
     164      444        1     0.00000   19.43202    1.90848   36.42996
     165      444        1     0.00000    0.32828   21.01222   32.55924
     166      444        2     0.00000    1.04807   20.29243   32.18192
     167      444        2     0.00000   18.84104    2.49946   35.73708
     168      444        2     0.00000    1.45139   19.88911   38.30430
     169      444        1     0.00000    8.81531   21.18634   42.67870
     170      444        1     0.00000    7.93056   20.41686   41.90922
     171      444        1     0.00000    6.54118   20.56625   42.05860
     172      444        1     0.00000    6.04113    0.15229   21.64464
     173      444        1     0.00000    6.91880    0.92842   22.42076
     174      444        1     0.00000    8.30359    0.77135   22.26371
     175      444        2     0.00000    4.96971    0.26767   21.76003
     176      444        2     0.00000    8.98062    1.36976   22.86212
     177      444        2     0.00000    8.32495   19.70306   41.19540
     178      444        1     0.00000    5.59877   19.76030   41.25266
     179      444        1     0.00000    6.40290    1.90850   23.40084
     180      444        1     0.00000   10.27362   21.01222   42.50458
     181      444        2     0.00000   10.65094   20.29243   41.78478
     182      444        2     0.00000    7.09578    2.49946   23.99182
     183      444        2     0.00000    4.52856   19.88911   41.38147
     184      444        1     0.00000   12.52519    0.15416   42.67870
     185      444        1     0.00000   13.40994    0.92364   41.90922
     186      444        1     0.00000   14.79934    0.77425   42.05860
     187      444        1     0.00000   15.29937   21.18821   21.64464
     188      444        1     0.00000   14.42172   20.41210   22.42076
     189      444        1     0.00000   13.03691   20.56915   22.26371
     190      444        2     0.00000   16.37079   21.07283   21.76003
     191      444        2     0.00000   12.35988   19.97074   22.86212
     192      444        2     0.00000   13.01555    1.63746   41.19540
     193      444        1     0.00000   15.74173    1.58020   41.25266
     194      444        1     0.00000   14.93760   19.43202   23.40084
     195      444        1     0.00000   11.06688    0.32828   42.50458
     196      444        2     0.00000   10.68956    1.04807   41.78478
     197      444        2     0.00000   14.24472   18.84104   23.99182
     198      444        2     0.00000   16.81196    1.45139   41.38147
     199      444        1     0.00000   21.18634    8.81531   42.67870
     200      444        1     0.00000   20.41686    7.93056   41.90922
     201      444        1     0.00000   20.56625    6.54118   42.05860
     202      444        1     0.00000    0.15229    6.04115   21.64464
     203      444        1     0.00000    0.92842    6.91880   22.42076
     204      444        1     0.00000    0.77135    8.30359   22.26371
     205      444        2     0.00000    0.26767    4.96971   21.76003
     206      444        2     0.00000    1.36976    8.98062   22.86212
     207      444        2     0.00000   19.70306    8.32495   41.19540
     208      444        1     0.00000   19.76030    5.59877   41.25266
     209      444        1     0.00000    1.90850    6.40290   23.40084
     210      444        1     0.00000   21.01222   10.27362   42.50458
     211      444        2     0.00000   20.29243   10.65094   41.78478
     212      444        2     0.00000    2.49946    7.09578   23.99180
     213      444        2     0.00000   19.88911    4.52856   41.38147
     214      444        1     0.00000   21.18634   12.52519   21.64652
     215      444        1     0.00000   20.41686   13.40994   22.41598
     216      444        1     0.00000   20.56625   14.79934   22.26661
     217      444        1     0.00000    0.15229   15.29937   42.68057
     218      444        1     0.00000    0.92842   14.42172   41.90444
     219      444        1     0.00000    0.77135   13.03691   42.06151
     220      444        2     0.00000    0.26767   16.37079   42.56519
     221      444        2     0.00000    1.36976   12.35988   41.46308
     222      444        2     0.00000   19.70306   13.01555   23.12979
     223      444        1     0.00000   19.76030   15.74173   23.07256
     224      444        1     0.00000    1.90850   14.93760   40.92436
     225      444        1     0.00000   21.01222   11.06688   21.82064
     226      444        2     0.00000   20.29243   10.68956   22.54043
     227      444        2     0.00000    2.49946   14.24472   40.33340
     228      444        2     0.00000   19.88911   16.81196   22.94373
     229      444        1     0.00000    4.39414    2.54996   24.32527
     230      444        1     0.00000    3.68375    2.12737   25.45821
     231      444        1     0.00000    2.54996    2.83291   25.88647
     232      444        1     0.00000    2.12737    3.96585   25.17611
     233      444        1     0.00000    2.83291    4.39414   24.04231
     234      444        1     0.00000    3.96585    3.68378   23.61973
     235      444        2     0.00000    1.25188    4.51273   25.50474
     236      444        2     0.00000    4.51273    4.01240   22.74424
     237      444        2     0.00000    4.01240    1.25188   26.00509
     238      444        3     0.00000    5.53923    1.83469   23.89545
     239      444        3     0.00000    1.83469    2.40309   27.03158
     240      444        3     0.00000    2.40309    5.53923   23.32704
     241      444        1     0.00000   16.94636   18.79054   24.32527
     242      444        1     0.00000   17.65675   19.21313   25.45821
     243      444        1     0.00000   18.79054   18.50759   25.88647
     244      444        1     0.00000   19.21313   17.37465   25.17611
     245      444        1     0.00000   18.50759   16.94636   24.04231
     246      444        1     0.00000   17.37465   17.65672   23.61973
     247      444        2     0.00000   20.08862   16.82777   25.50474
     248      444        2     0.00000   16.82777   17.32810   22.74424
     249      444        2     0.00000   17.32810   20.08862   26.00509
     250      444        3     0.00000   15.80127   19.50581   23.89545
     251      444        3     0.00000   19.50581   18.93741   27.03158
     252      444        3     0.00000   18.93741   15.80127   23.32704
     253      444        1     0.00000   16.94636    2.54996   39.99995
     254      444        1     0.00000   17.65675    2.12737   38.86700
     255      444        1     0.00000   18.79054    2.83291   38.43872
     256      444        1     0.00000   19.21313    3.96585   39.14910
     257      444        1     0.00000   18.50759    4.39414   40.28290
     258      444        1     0.00000   17.37465    3.68378   40.70547
     259      444        2     0.00000   20.08862    4.51273   38.82046
     260      444        2     0.00000   16.82777    4.01240   41.58098
     261      444        2     0.00000   17.32810    1.25188   38.32013
     262      444        3     0.00000   15.80127    1.83469   40.42977
     263      444        3     0.00000   19.50581    2.40309   37.29363
     264      444        3     0.00000   18.93741    5.53923   40.99817
     265      444        1     0.00000    4.39414   18.79054   39.99995
     266      444        1     0.00000    3.68375   19.21313   38.86700
     267      444        1     0.00000    2.54996   18.50759   38.43872
     268      444        1     0.00000    2.12737   17.37465   39.14908
     269      444        1     0.00000    2.83291   16.94636   40.28290
     270      444        1     0.00000    3.96585   17.65672   40.70547
     271      444        2     0.00000    1.25188   16.82777   38.82046
     272      444        2     0.00000    4.51273   17.32810   41.58098
     273      444        2     0.00000    4.01240   20.08862   38.32013
     274      444        3     0.00000    5.53923   19.50581   40.42977
     275      444        3     0.00000    1.83469   18.93741   37.29363
     276      444        3     0.00000    2.40309   15.80127   40.99817
     277      444        1     0.00000   21.18634   42.52684    8.96717
     278      444        1     0.00000   20.41686   41.75736    8.08242
     279      444        1     0.00000   20.56625   41.90675    6.69302
     280      444        1     0.00000    0.15229   21.49279    6.19299
     281      444        1     0.00000    0.92840   22.26890    7.07064
     282      444        1     0.00000    0.77135   22.11185    8.45545
     283      444        2     0.00000    0.26767   21.60817    5.12157
     284      444        2     0.00000    1.36976   22.71026    9.13247
     285      444        2     0.00000   19.70306   41.04356    8.47681
     286      444        1     0.00000   19.76030   41.10080    5.75062
     287      444        1     0.00000    1.90848   23.24898    6.55476
     288      444        1     0.00000   21.01222   42.35272   10.42547
     289      444        2     0.00000   20.29243   41.63293   10.80280
     290      444        2     0.00000    2.49946   23.83996    7.24764
     291      444        2     0.00000   19.88911   41.22961    4.68040
     292      444        1     0.00000    0.15416   42.52684   12.67705
     293      444        1     0.00000    0.92364   41.75736   13.56178
     294      444        1     0.00000    0.77425   41.90675   14.95118
     295      444        1     0.00000   21.18821   21.49279   15.45120
     296      444        1     0.00000   20.41208   22.26890   14.57356
     297      444        1     0.00000   20.56915   22.11185   13.18877
     298      444        2     0.00000   21.07283   21.60817   16.52263
     299      444        2     0.00000   19.97074   22.71026   12.51174
     300      444        2     0.00000    1.63744   41.04356   13.16741
     301      444        1     0.00000    1.58020   41.10080   15.89359
     302      444        1     0.00000   19.43202   23.24898   15.08946
     303      444        1     0.00000    0.32828   42.35272   11.21874
     304      444        2     0.00000    1.04807   41.63293   10.84142
     305      444        2     0.00000   18.84104   23.83996   14.39658
     306      444        2     0.00000    1.45139   41.22961   16.96380
     307      444        1     0.00000    8.81531   42.52684   21.33820
     308      444        1     0.00000    7.93056   41.75736   20.56872
     309      444        1     0.00000    6.54118   41.90675   20.71810
     310      444        1     0.00000    6.04113   21.49279    0.30414
     311      444        1     0.00000    6.91880   22.26892    1.08026
     312      444        1     0.00000    8.30359   22.11185    0.92321
     313      444        2     0.00000    4.96971   21.60817    0.41953
     314      444        2     0.00000    8.98062   22.71026    1.52162
     315      444        2     0.00000    8.32495   41.04356   19.85490
     316      444        1     0.00000    5.59877   41.10080   19.91216
     317      444        1     0.00000    6.40290   23.24900    2.06034
     318      444        1     0.00000   10.27362   42.35272   21.16408
     319      444        2     0.00000   10.65094   41.63293   20.44428
     320      444        2     0.00000    7.09578   23.83996    2.65132
     321      444        2     0.00000    4.52856   41.22961   20.04097
     322      444        1     0.00000   12.52519   21.49466   21.33820
     323      444        1     0.00000   13.40994   22.26414   20.56872
     324      444        1     0.00000   14.79934   22.11475   20.71810
     325      444        1     0.00000   15.29937   42.52871    0.30414
     326      444        1     0.00000   14.42172   41.75260    1.08026
     327      444        1     0.00000   13.03691   41.90965    0.92321
     328      444        2     0.00000   16.37079   42.41333    0.41953
     329      444        2     0.00000   12.35988   41.31124    1.52162
     330      444        2     0.00000   13.01555   22.97796   19.85490
     331      444        1     0.00000   15.74173   22.92070   19.91216
     332      444        1     0.00000   14.93760   40.77252    2.06034
     333      444        1     0.00000   11.06688   21.66878   21.16408
     334      444        2     0.00000   10.68956   22.38857   20.44428
     335      444        2     0.00000   14.24472   40.18154    2.65132
     336      444        2     0.00000   16.81196   22.79189   20.04097
     337      444        1     0.00000   21.18634   30.15581   21.33820
     338      444        1     0.00000   20.41686   29.27106   20.56872
     339      444        1     0.00000   20.56625   27.88168   20.71810
     340      444        1     0.00000    0.15229   27.38165    0.30414
     341      444        1     0.00000    0.92842   28.25930    1.08026
     342      444        1     0.00000    0.77135   29.64409    0.92321
     343      444        2     0.00000    0.26767   26.31021    0.41953
     344      444        2     0.00000    1.36976   30.32112    1.52162
     345      444        2     0.00000   19.70306   29.66545   19.85490
     346      444        1     0.00000   19.76030   26.93927   19.91216
     347      444        1     0.00000    1.90850   27.74340    2.06034
     348      444        1     0.00000   21.01222   31.61412   21.16408
     349      444        2     0.00000   20.29243   31.99144   20.44428
     350      444        2     0.00000    2.49946   28.43628    2.65130
     351      444        2     0.00000   19.88911   25.86906   20.04097
     352      444        1     0.00000   21.18634   33.86569    0.30602
     353      444        1     0.00000   20.41686   34.75044    1.07548
     354      444        1     0.00000   20.56625   36.13984    0.92611
     355      444        1     0.00000    0.15229   36.63987   21.34007
     356      444        1     0.00000    0.92842   35.76222   20.56394
     357      444        1     0.00000    0.77135   34.37741   20.72101
     358      444        2     0.00000    0.26767   37.71129   21.22469
     359      444        2     0.00000    1.36976   33.70038   20.12258
     360      444        2     0.00000   19.70306   34.35605    1.78929
     361      444        1     0.00000   19.76030   37.08223    1.73206
     362      444        1     0.00000    1.90850   36.27810   19.58386
     363      444        1     0.00000   21.01222   32.40738    0.48014
     364      444        2     0.00000   20.29243   32.03006    1.19993
     365      444        2     0.00000    2.49946   35.58522   18.99290
     366      444        2     0.00000   19.88911   38.15246    1.60323
     367      444        1     0.00000    4.39414   23.89046    2.98477
     368      444        1     0.00000    3.68375   23.46787    4.11771
     369      444        1     0.00000    2.54996   24.17341    4.54597
     370      444        1     0.00000    2.12737   25.30635    3.83561
     371      444        1     0.00000    2.83291   25.73464    2.70181
     372      444        1     0.00000    3.96585   25.02428    2.27923
     373      444        2     0.00000    1.25188   25.85323    4.16424
     374      444        2     0.00000    4.51273   25.35290    1.40374
     375      444        2     0.00000    4.01240   22.59238    4.66459
     376      444        3     0.00000    5.53923   23.17519    2.55495
     377      444        3     0.00000    1.83469   23.74359    5.69108
     378      444        3     0.00000    2.40309   26.87973    1.98654
     379      444        1     0.00000   16.94636   40.13104    2.98477
     380      444        1     0.00000   17.65675   40.55363    4.11771
     381      444        1     0.00000   18.79054   39.84809    4.54597
     382      444        1     0.00000   19.21313   38.71515    3.83561
     383      444        1     0.00000   18.50759   38.28686    2.70181
     384      444        1     0.00000   17.37465   38.99722    2.27923
     385      444        2     0.00000   20.08862   38.16827    4.16424
     386      444        2     0.00000   16.82777   38.66860    1.40374
     387      444        2     0.00000   17.32810   41.42912    4.66459
     388      444        3     0.00000   15.80127   40.84631    2.55495
     389      444        3     0.00000   19.50581   40.27791    5.69108
     390      444        3     0.00000   18.93741   37.14177    1.98654
     391      444        1     0.00000   16.94636   23.89046   18.65945
     392      444        1     0.00000   17.65675   23.46787   17.52650
     393      444        1     0.00000   18.79054   24.17341   17.09822
     394      444        1     0.00000   19.21313   25.30635   17.80860
     395      444        1     0.00000   18.50759   25.73464   18.94240
     396      444        1     0.00000   17.37465   25.02428   19.36497
     397      444        2     0.00000   20.08862   25.85323   17.47996
     398      444        2     0.00000   16.82777   25.35290   20.24048
     399      444        2     0.00000   17.32810   22.59238   16.97963
     400      444        3     0.00000   15.80127   23.17519   19.08927