LAMMPS (30 Jul 2016)

# ----------------- Init Section -----------------

units real
newton off
atom_style full
atom_modify sort 0 10.0

# ----------------- Atom Definition Section -----------------

read_data "MgMOF74-Pressure50000.data"
  orthogonal box = (0.4447 0.31425 -0.401771) to (26.5587 45.5442 27.2652)
  1 by 1 by 1 MPI processor grid
  reading atoms ...
  1307 atoms
  0 = max # of 1-2 neighbors
  0 = max # of 1-3 neighbors
  0 = max # of 1-4 neighbors
  1 = max # of special neighbors

# ----------------- Settings Section -----------------

#include "MgMOF74-Pressure50000.in.settings"

# ----------------- Run Section -----------------

# define groups
group GUEST type 1
11 atoms in group GUEST
group MOF type 2 3 4 5 6 7 8 9 10
1296 atoms in group MOF

# define computes
compute comT all com
compute comG GUEST com
compute comM MOF com

# settings
timestep           0.5
thermo             200
thermo_style       custom step temp epair emol etotal c_comT[1] c_comT[2] c_comT[3] c_comG[1] c_comG[2] c_comG[3] c_comM[1] c_comM[2] c_comM[3]
restart            2000000 sim.restart

# reset box to start at 0
change_box         all x delta $(-xlo) $(-xlo) y delta $(-ylo) $(-ylo) z delta $(-zlo) $(-zlo) remap units box
change_box         all x delta -0.44469999999999998419 $(-xlo) y delta $(-ylo) $(-ylo) z delta $(-zlo) $(-zlo) remap units box
change_box         all x delta -0.44469999999999998419 -0.44469999999999998419 y delta $(-ylo) $(-ylo) z delta $(-zlo) $(-zlo) remap units box
change_box         all x delta -0.44469999999999998419 -0.44469999999999998419 y delta -0.3142499999999999738 $(-ylo) z delta $(-zlo) $(-zlo) remap units box
change_box         all x delta -0.44469999999999998419 -0.44469999999999998419 y delta -0.3142499999999999738 -0.3142499999999999738 z delta $(-zlo) $(-zlo) remap units box
change_box         all x delta -0.44469999999999998419 -0.44469999999999998419 y delta -0.3142499999999999738 -0.3142499999999999738 z delta 0.40177099999999998925 $(-zlo) remap units box
change_box         all x delta -0.44469999999999998419 -0.44469999999999998419 y delta -0.3142499999999999738 -0.3142499999999999738 z delta 0.40177099999999998925 0.40177099999999998925 remap units box
  orthogonal box = (0 0.31425 -0.401771) to (26.114 45.5442 27.2652)
  orthogonal box = (0 0 -0.401771) to (26.114 45.23 27.2652)
  orthogonal box = (0 0 0) to (26.114 45.23 27.667)
write_data         data_changebox.data

# get rid of overlapping atoms
run                0
WARNING: No fixes defined, atoms won't move (../verlet.cpp:55)
Memory usage per processor = 0.478851 Mbytes
Step Temp E_pair E_mol TotEng comT[1] comT[2] comT[3] comG[1] comG[2] comG[3] comM[1] comM[2] comM[3] 
       0            0            0            0            0    12.683318    22.424053    14.189073    19.734246    34.636249    9.6241346    12.612127     22.30075    14.235163 
Loop time of 0 on 1 procs for 0 steps with 1307 atoms

0.0% CPU use with 1 MPI tasks x no OpenMP threads

MPI task timing breakdown:
Section |  min time  |  avg time  |  max time  |%varavg| %total
---------------------------------------------------------------
Pair    | 0          | 0          | 0          |   0.0 |  0.00
Bond    | 0          | 0          | 0          |   0.0 |  0.00
Neigh   | 0          | 0          | 0          |   0.0 |  0.00
Comm    | 0          | 0          | 0          |   0.0 |  0.00
Output  | 0          | 0          | 0          |   0.0 |  0.00
Modify  | 0          | 0          | 0          |   0.0 |  0.00
Other   |            | 0          |            |       |  0.00

Nlocal:    1307 ave 1307 max 1307 min
Histogram: 1 0 0 0 0 0 0 0 0 0
Nghost:    0 ave 0 max 0 min
Histogram: 1 0 0 0 0 0 0 0 0 0
Neighs:    0 ave 0 max 0 min
Histogram: 1 0 0 0 0 0 0 0 0 0

Total # of neighbors = 0
Ave neighs/atom = 0
Ave special neighs/atom = 0
Neighbor list builds = 0
Dangerous builds = 0
velocity           GUEST create 313 1738
fix                1 GUEST nvt temp 313 313 100.0
pair_style         soft 5.0
pair_coeff         * * 0.0 5.0
kspace_style       none
variable           prefactor equal ramp(1.0,20.0)
fix                2 all adapt 1 pair soft a * * v_prefactor
run                200000
Neighbor list info ...
  1 neighbor list requests
  update every 1 steps, delay 10 steps, check yes
  max neighbors/atom: 2000, page size: 100000
  master list distance cutoff = 7
  ghost atom cutoff = 7
  binsize = 3.5 -> bins = 8 13 8
Memory usage per processor = 5.44173 Mbytes
Step Temp E_pair E_mol TotEng comT[1] comT[2] comT[3] comG[1] comG[2] comG[3] comM[1] comM[2] comM[3] 
       0    2.3966309    8995.3087            0    9004.6386    12.683318    22.424053    14.189073    19.734246    34.636249    9.6241346    12.612127     22.30075    14.235163 
     200    3.0130589     9163.179            0    9174.9086    12.683325    22.423936    14.189079    19.734927    34.624519    9.6247824    12.612127     22.30075    14.235163 
     400    4.0138976    9319.1725            0    9334.7984    12.683376    22.423194    14.189085    19.740084    34.550342    9.6253666    12.612127     22.30075    14.235163 
     600    5.9381982    9461.4827            0    9484.5997    12.683475    22.421836    14.188977    19.749958    34.414466    9.6145793    12.612127     22.30075    14.235163 
     800    3.8635705    9616.2598            0    9631.3005    12.683567    22.420837    14.188805    19.759204    34.314497    9.5973756    12.612127     22.30075    14.235163 
    1000    4.1027185    9768.8245            0    9784.7961    12.683582     22.41981    14.188725    19.760705    34.211717    9.5893304    12.612127     22.30075    14.235163 
    1200    3.7890672    9920.3658            0    9935.1164     12.68353    22.417949    14.188573    19.755506    34.025549    9.5741737    12.612127     22.30075    14.235163 
    1400    1.9516041     10086.03            0    10093.627    12.683517    22.415996    14.188304    19.754202    33.830232    9.5472963    12.612127     22.30075    14.235163 
    1600    1.4417164    10255.088            0    10260.701    12.683522    22.414473    14.188071    19.754631    33.677809    9.5239588    12.612127     22.30075    14.235163 
    1800    2.1711064    10424.227            0    10432.679    12.683519    22.412906    14.187831    19.754394    33.521042    9.4999704    12.612127     22.30075    14.235163 
    2000    3.3958135    10593.365            0    10606.585    12.683506    22.410883    14.187523    19.753105    33.318683     9.469083    12.612127     22.30075    14.235163 
    2200    2.5934766    10762.649            0    10772.745    12.683483    22.408756    14.187198    19.750779    33.105893    9.4365862    12.612127     22.30075    14.235163 
    2400   0.91062527    10935.852            0    10939.397     12.68347    22.407375    14.186854    19.749454    32.967778    9.4021426    12.612127     22.30075    14.235163 
    2600   0.97386237    11106.698            0    11110.489    12.683496    22.407569    14.186195     19.75202    32.987188    9.3363031    12.612127     22.30075    14.235163 
    2800    3.0831012    11272.518            0     11284.52    12.683548    22.409467     14.18499    19.757306    33.177054    9.2156671    12.612127     22.30075    14.235163 
    3000    3.1306773    11440.868            0    11453.055    12.683584    22.411457    14.183669    19.760819    33.376122    9.0835669    12.612127     22.30075    14.235163 
    3200    2.0109289    11609.218            0    11617.047    12.683599    22.412797    14.182639    19.762317    33.510154    8.9805068    12.612127     22.30075    14.235163 
    3400    1.8773032    11777.805            0    11785.113    12.683595    22.413865      14.1818    19.761992    33.617012    8.8966103    12.612127     22.30075    14.235163 
    3600     2.420338    11947.532            0    11956.954    12.683524    22.414931    14.180963    19.754852    33.723649    8.8128031    12.612127     22.30075    14.235163 
    3800    2.8989503    12119.313            0    12130.598    12.683188    22.416146    14.179995    19.721236     33.84523    8.7159839    12.612127     22.30075    14.235163 
    4000    2.2955707    12292.094            0     12301.03    12.682196    22.416828     14.17884    19.622002    33.913382    8.6004646    12.612127     22.30075    14.235163 
    4200    4.6289552    12457.994            0    12476.015    12.680326    22.416031    14.177118    19.434953    33.833665       8.4282    12.612127     22.30075    14.235163 
    4400    3.0311147    12623.998            0    12635.798    12.678234    22.414118    14.175002    19.225677    33.642302    8.2165009    12.612127     22.30075    14.235163 
    4600    1.8801557    12793.745            0    12801.064    12.676958    22.412845    14.173417    19.098003    33.514915    8.0578913    12.612127     22.30075    14.235163 
    4800    2.2070804    12962.257            0    12970.849    12.676016    22.412259    14.171982    19.003739    33.456378    7.9143577    12.612127     22.30075    14.235163 
    5000    2.8753789    13131.627            0     13142.82    12.675226       22.412    14.170454    18.924756    33.430428     7.761508    12.612127     22.30075    14.235163 
    5200    2.6398661    13301.969            0    13312.246    12.674816    22.411636    14.168901    18.883688     33.39398    7.6061681    12.612127     22.30075    14.235163 
    5400     2.026916      13470.3            0    13478.191    12.674979    22.411087    14.167591    18.899978    33.339137    7.4750901    12.612127     22.30075    14.235163 
    5600    1.5020924     13639.03            0    13644.878    12.675439     22.41053    14.166559    18.945988    33.283406    7.3718752    12.612127     22.30075    14.235163 
    5800    2.0951668    13808.453            0     13816.61    12.675963    22.410167      14.1656    18.998444     33.24706    7.2758966    12.612127     22.30075    14.235163 
    6000    3.3151043     13977.87            0    13990.776    12.676636    22.410214    14.164472    19.065811    33.251787    7.1630409    12.612127     22.30075    14.235163 
    6200    2.5932974    14146.645            0     14156.74    12.677303     22.41094    14.163518    19.132464    33.324427    7.0676359    12.612127     22.30075    14.235163 
    6400     2.033475    14315.484            0    14323.401     12.67793    22.412322    14.162743    19.195182     33.46263    6.9900973    12.612127     22.30075    14.235163 
    6600    2.1807698    14484.234            0    14492.724    12.678568    22.414323    14.161955    19.259035    33.662817    6.9112385    12.612127     22.30075    14.235163 
    6800    3.3836673    14653.965            0    14667.137    12.679124    22.416758    14.161211    19.314703    33.906378    6.8368616    12.612127     22.30075    14.235163 
    7000    3.8986518    14822.537            0    14837.714    12.679523    22.419697    14.160472    19.354587    34.200486    6.7628955    12.612127     22.30075    14.235163 
    7200    2.1490968    14991.767            0    15000.133    12.679707    22.421831    14.159995    19.372997    34.413941    6.7151927    12.612127     22.30075    14.235163 
    7400    1.9437053      15161.7            0    15169.267    12.679817      22.4231    14.159774    19.384034    34.540927    6.6930352    12.612127     22.30075    14.235163 
    7600    2.6764182    15331.059            0    15341.478    12.679713    22.423694    14.159728    19.373563    34.600281    6.6884767    12.612127     22.30075    14.235163 
    7800    3.1957589    15500.092            0    15512.533    12.679463    22.423486    14.159704    19.348573     34.57953    6.6860904    12.612127     22.30075    14.235163 
    8000    1.6633355    15670.071            0    15676.546    12.679396    22.422373    14.159605    19.341929    34.468155    6.6761863    12.612127     22.30075    14.235163 
    8200    1.2524081    15839.632            0    15844.507     12.67944    22.420862    14.159421    19.346302    34.316978    6.6576988    12.612127     22.30075    14.235163 
    8400    2.0103732    16008.252            0    16016.078    12.679556    22.418677    14.159085    19.357925    34.098438    6.6241321    12.612127     22.30075    14.235163 
    8600     2.811105    16176.098            0    16187.041    12.679767    22.415781    14.158604    19.379001    33.808713    6.5760529    12.612127     22.30075    14.235163 
    8800    2.6017894    16344.388            0    16354.516    12.680117    22.412661    14.158059    19.414058    33.496587      6.52146    12.612127     22.30075    14.235163 
    9000    1.6674455    16513.865            0    16520.356    12.680624    22.409894    14.157533    19.464705    33.219716    6.4688512    12.612127     22.30075    14.235163 
    9200    1.6014864    16683.767            0    16690.001    12.681131    22.407715    14.157094    19.515476    33.001756    6.4249844    12.612127     22.30075    14.235163 
    9400    3.2182692    16853.662            0    16866.191    12.681494    22.405769    14.156687    19.551724    32.807067    6.3842207    12.612127     22.30075    14.235163 
    9600    2.6307176    17023.781            0    17034.022    12.681469    22.404642    14.156199    19.549275     32.69429    6.3353806    12.612127     22.30075    14.235163 
    9800    2.1940266    17191.464            0    17200.005    12.681125    22.404897    14.155622    19.514847    32.719806    6.2776686    12.612127     22.30075    14.235163 
   10000    1.9163333     17360.03            0     17367.49    12.680882     22.40589    14.155098    19.490569    32.819196    6.2252286    12.612127     22.30075    14.235163 
   10200    2.4783174     17528.54            0    17538.188    12.680836    22.407209    14.154503    19.485956    32.951082    6.1656998    12.612127     22.30075    14.235163 
   10400     4.005131     17697.19            0    17712.782    12.680826    22.408979    14.153718    19.484986    33.128191    6.0872113    12.612127     22.30075    14.235163 
   10600    2.3209218    17866.452            0    17875.487    12.680818    22.410756    14.152946    19.484101    33.306014    6.0099429    12.612127     22.30075    14.235163 
   10800    1.8084014      18035.9            0     18042.94    12.680832    22.412333    14.152342    19.485518    33.463743    5.9495058    12.612127     22.30075    14.235163 
   11000    2.1349132    18205.851            0    18214.163     12.68092    22.414172    14.151757    19.494356    33.647755    5.8909739    12.612127     22.30075    14.235163 
   11200    2.7872429    18375.795            0    18386.645    12.681154    22.416274    14.151121    19.517805    33.857959    5.8273636    12.612127     22.30075    14.235163 
   11400    2.7053878    18545.216            0    18555.748      12.6818    22.417816    14.150365    19.582339    34.012317    5.7517445    12.612127     22.30075    14.235163 
   11600    2.5970897     18713.02            0     18723.13    12.682747     22.41816    14.149823    19.677118    34.046731    5.6975674    12.612127     22.30075    14.235163 
   11800    2.4769833    18881.584            0    18891.226    12.683737    22.417726    14.149536    19.776168    34.003261    5.6688032    12.612127     22.30075    14.235163 
   12000    2.3031766     19050.73            0    19059.696    12.684474    22.416959    14.149346    19.849929    33.926532    5.6498409    12.612127     22.30075    14.235163 
   12200    2.3259171    19219.646            0      19228.7    12.684841    22.416039    14.149183    19.886622     33.83448    5.6335103    12.612127     22.30075    14.235163 
   12400    2.4968158    19388.901            0    19398.621     12.68501    22.414983    14.149007    19.903484     33.72888    5.6159371    12.612127     22.30075    14.235163 
   12600    2.8693651    19558.098            0    19569.269    12.685144     22.41364    14.148787    19.916947    33.594491    5.5938422    12.612127     22.30075    14.235163 
   12800    1.8699816     19730.27            0    19737.549    12.685209     22.41223    14.148555     19.92346    33.453398     5.570705    12.612127     22.30075    14.235163 
   13000    2.2959044    19899.272            0    19908.209    12.684714    22.411808    14.148446    19.873859     33.41124    5.5598033    12.612127     22.30075    14.235163 
   13200    3.9016347    20065.704            0    20080.893    12.683339    22.412318    14.148382    19.736342    33.462216    5.5533369    12.612127     22.30075    14.235163 
   13400    2.2025975    20234.551            0    20243.126    12.681827    22.412959    14.148259    19.585053    33.526337    5.5410872    12.612127     22.30075    14.235163 
   13600    1.8625483    20404.213            0    20411.464    12.680583    22.413381    14.148112    19.460676      33.5686    5.5264093    12.612127     22.30075    14.235163 
   13800    2.3727854    20573.704            0    20582.941    12.679579     22.41349    14.147929    19.360214    33.579453    5.5080703    12.612127     22.30075    14.235163 
   14000    2.6966522    20744.325            0    20754.823    12.678981    22.413345    14.147807    19.300361    33.564946    5.4958306    12.612127     22.30075    14.235163 
   14200    2.5954457    20915.137            0    20925.241    12.678817    22.412367    14.147607     19.28395    33.467141    5.4758307    12.612127     22.30075    14.235163 
   14400    4.1082831    21080.251            0    21096.244    12.678986    22.409958    14.147106    19.300891    33.226119    5.4257558    12.612127     22.30075    14.235163 
   14600    2.0338956    21249.266            0    21257.183    12.679265    22.407599    14.146588    19.328755    32.990127    5.3738681    12.612127     22.30075    14.235163 
   14800    1.6517014    21419.018            0    21425.448    12.679578    22.405848    14.146188    19.360095    32.814944     5.333878    12.612127     22.30075    14.235163 
   15000    2.3793566    21588.892            0    21598.154    12.680027    22.404208    14.145774    19.405039    32.650923    5.2925131    12.612127     22.30075    14.235163 
   15200    3.1170973    21758.162            0    21770.297    12.680455    22.402741    14.145246    19.447862    32.504183    5.2396898    12.612127     22.30075    14.235163 
   15400    2.1807075    21928.664            0    21937.153    12.680756    22.402056    14.144618    19.477891    32.435608    5.1767771    12.612127     22.30075    14.235163 
   15600      2.26373    22096.022            0    22104.835    12.681477    22.402811    14.143994    19.550094    32.511181    5.1143513    12.612127     22.30075    14.235163 
   15800    1.5464516    22265.194            0    22271.214    12.682441    22.404391    14.143415    19.646463    32.669197     5.056429    12.612127     22.30075    14.235163 
   16000    1.2549256    22434.841            0    22439.727    12.683201    22.406173    14.143019     19.72251    32.847435    5.0168906    12.612127     22.30075    14.235163 
   16200    2.5365214    22603.573            0    22613.447    12.683932    22.408828    14.142688    19.795721    33.113128     4.983743    12.612127     22.30075    14.235163 
   16400    2.5732853     22774.88            0    22784.897    12.684341    22.412048    14.142395    19.836545    33.435181    4.9543907    12.612127     22.30075    14.235163 
   16600    2.6714007    22943.458            0    22953.858    12.683855    22.414313    14.142157    19.788016    33.661798    4.9305999    12.612127     22.30075    14.235163 
   16800     2.136886    23111.068            0    23119.387    12.682498    22.415308    14.141863    19.652252    33.761333    4.9011876    12.612127     22.30075    14.235163 
   17000    1.5264611    23279.316            0    23285.259    12.680989    22.415506    14.141505      19.5012    33.781177    4.8653382    12.612127     22.30075    14.235163 
   17200    2.0526372    23448.052            0    23456.043    12.679558     22.41536    14.141043    19.358099    33.766614    4.8191932    12.612127     22.30075    14.235163 
   17400    3.4021474    23617.041            0    23630.285    12.677791    22.415062    14.140391    19.181346    33.736787    4.7539814    12.612127     22.30075    14.235163 
   17600    2.5127159    23787.896            0    23797.678    12.675955    22.414619    14.139679    18.997627    33.692405    4.6827543    12.612127     22.30075    14.235163 
   17800    1.9008043    23959.077            0    23966.477    12.674948    22.413688    14.139063    18.896928    33.599319    4.6210392    12.612127     22.30075    14.235163 
   18000    2.8437013    24127.197            0    24138.267    12.675436    22.412426    14.138461    18.945757    33.473062    4.5608119    12.612127     22.30075    14.235163 
   18200    3.2432759    24294.967            0    24307.593    12.677453    22.411616    14.137877    19.147548    33.391984    4.5024519    12.612127     22.30075    14.235163 
   18400    1.4994416    24464.742            0    24470.579    12.679753    22.411312    14.137422    19.377553    33.361573    4.4569629    12.612127     22.30075    14.235163 
   18600    1.5351044    24634.145            0    24640.122    12.681675     22.41106    14.137057    19.569871    33.336421    4.4203617    12.612127     22.30075    14.235163 
   18800    2.8252691    24801.657            0    24812.655    12.683985    22.410698    14.136656    19.800972    33.300146    4.3802706    12.612127     22.30075    14.235163 
   19000    2.5945767    24971.051            0    24981.152    12.686593    22.410227    14.136232    20.061918    33.253016    4.3378597    12.612127     22.30075    14.235163 
   19200    1.2649286    25145.034            0    25149.958    12.688076    22.409512    14.135573    20.210249    33.181511    4.2719383    12.612127     22.30075    14.235163 
   19400    3.6072803      25309.3            0    25323.343     12.68721    22.408256    14.134193    20.123607    33.055902    4.1338908    12.612127     22.30075    14.235163 
   19600    2.5330646    25480.039            0      25489.9     12.68572    22.407539    14.132389     19.97453    32.984154     3.953437    12.612127     22.30075    14.235163 
   19800    2.3022639    25648.447            0    25657.409    12.684423     22.40814     14.13042    19.844814    33.044227    3.7564457    12.612127     22.30075    14.235163 
   20000     2.244139    25817.094            0     25825.83    12.683213    22.409198    14.128434    19.723775    33.150116    3.5577694    12.612127     22.30075    14.235163 
   20200    2.3945889    25985.563            0    25994.885    12.682027    22.410373    14.126452    19.605109    33.267679    3.3594452    12.612127     22.30075    14.235163 
   20400    2.2094212    26155.606            0    26164.207    12.680931    22.411853    14.124369    19.495482    33.415698    3.1510677    12.612127     22.30075    14.235163 
   20600    2.5219921    26325.538            0    26335.356    12.680381    22.413348    14.122064    19.440401    33.565283    2.9204522    12.612127     22.30075    14.235163 
   20800    3.0665863    26495.088            0    26507.026    12.680676    22.414098    14.119429    19.469976    33.640321    2.6568438    12.612127     22.30075    14.235163 
   21000    2.4468551    26663.349            0    26672.875     12.68178    22.414028    14.117118    19.580409    33.633361    2.4256847    12.612127     22.30075    14.235163 
   21200    1.6119833    26831.815            0     26838.09    12.683293    22.413455    14.115391    19.731729    33.575988     2.252911    12.612127     22.30075    14.235163 
   21400    2.0332825    27000.366            0    27008.281    12.684911    22.412226    14.113648    19.893596    33.453072     2.078465    12.612127     22.30075    14.235163 
   21600    2.7712106    27169.073            0    27179.861    12.686816      22.4103    14.111508    20.084165    33.260404    1.8644003    12.612127     22.30075    14.235163 
   21800    2.5159216    27338.665            0    27348.459    12.688594    22.408105    14.109336    20.262101    33.040765    1.6470947    12.612127     22.30075    14.235163 
   22000    1.8949754    27510.002            0    27517.379    12.689967    22.406209    14.107333    20.399419    32.851104    1.4467213    12.612127     22.30075    14.235163 
   22200    2.9896795    27677.566            0    27689.205    12.691018    22.405346    14.105149    20.504594     32.76476    1.2282953    12.612127     22.30075    14.235163 
   22400    2.8534325    27847.777            0    27858.885    12.691743    22.405234    14.102555      20.5771     32.75352   0.96878973    12.612127     22.30075    14.235163 
   22600    1.6769343    28015.927            0    28022.455    12.691901    22.405786     14.10047    20.592945    32.808761   0.76013447    12.612127     22.30075    14.235163 
   22800    1.8098141    28183.909            0    28190.955    12.691694    22.406789    14.098869    20.572216    32.909134   0.60002674    12.612127     22.30075    14.235163 
   23000    2.3877275    28354.019            0    28363.314    12.691248    22.408029    14.097128    20.527615    33.033146   0.42586731    12.612127     22.30075    14.235163 
   23200    2.9412829    28523.971            0    28535.422    12.690191    22.409803    14.095065    20.421787    33.210604   0.21946652    12.612127     22.30075    14.235163 
   23400    2.6922144    28692.957            0    28703.438    12.688443    22.411344    14.093177    20.246969    33.364767   0.03059458    12.612127     22.30075    14.235163 
   23600    2.5636616    28860.636            0    28870.617    12.686241    22.412198     14.09157    20.026657    33.450211  -0.13022953    12.612127     22.30075    14.235163 
   23800    1.6736462    29032.545            0     29039.06    12.684136    22.412165     14.09018    19.816066    33.446954  -0.26930624    12.612127     22.30075    14.235163 
   24000    3.2886169    29198.628            0     29211.43    12.681817    22.410563    14.088998    19.584115    33.286687  -0.38750883    12.612127     22.30075    14.235163 
   24200    2.4137061     29368.42            0    29377.816    12.679378    22.408515    14.087795    19.340078    33.081739  -0.50789794    12.612127     22.30075    14.235163 
   24400    1.3559226    29537.663            0    29542.942    12.678217    22.406926    14.086794    19.223953    32.922835  -0.60806258    12.612127     22.30075    14.235163 
   24600     2.047464    29706.385            0    29714.356    12.678035    22.405498    14.085667    19.205745    32.779918  -0.72077623    12.612127     22.30075    14.235163 
   24800    2.8418892    29876.162            0    29887.225     12.67849    22.403981    14.084333    19.251225    32.628148  -0.85418235    12.612127     22.30075    14.235163 
   25000    2.1642436    30047.702            0    30056.127    12.679795     22.40267     14.08322    19.381781    32.496986  -0.96560498    12.612127     22.30075    14.235163 
   25200     2.730616    30215.445            0    30226.075    12.681712    22.402641    14.082594    19.573615    32.494087   -1.0281472    12.612127     22.30075    14.235163 
   25400    3.7785126    30384.031            0    30398.741    12.684247    22.403937     14.08227    19.827197    32.623781   -1.0606285    12.612127     22.30075    14.235163 
   25600    2.2373641    30553.445            0    30562.155    12.686455    22.405953    14.082035    20.048069    32.825496   -1.0841379    12.612127     22.30075    14.235163 
   25800    1.9156163    30721.304            0    30728.761    12.687529    22.408045    14.081753    20.155486     33.03477   -1.1123552    12.612127     22.30075    14.235163 
   26000    2.0227185    30891.098            0    30898.972    12.688167    22.410242    14.081422    20.219316    33.254546   -1.1454021    12.612127     22.30075    14.235163 
   26200    2.9647346    31061.562            0    31073.104    12.688881    22.412873    14.081015    20.290757    33.517756   -1.1861609    12.612127     22.30075    14.235163 
   26400    2.0253347    31236.761            0    31244.646    12.689459    22.415111    14.080485    20.348638     33.74168   -1.2392009    12.612127     22.30075    14.235163 
   26600    3.4478895     31400.93            0    31414.353    12.688728    22.414373    14.079705    20.275431    33.667806   -1.3172023    12.612127     22.30075    14.235163 
   26800    3.0537527    31567.508            0    31579.396     12.68704    22.411904    14.079046    20.106613    33.420852   -1.3831575    12.612127     22.30075    14.235163 
   27000    2.3035296    31735.585            0    31744.553     12.68543    22.409342    14.078618    19.945498     33.16455   -1.4259183    12.612127     22.30075    14.235163 
   27200    1.9140709    31904.792            0    31912.243    12.684063    22.407114    14.078254    19.808829    32.941605   -1.4623905    12.612127     22.30075    14.235163 
   27400    2.4228204    32073.958            0     32083.39    12.682687    22.404868    14.077885    19.671116    32.716941   -1.4992626    12.612127     22.30075    14.235163 
   27600    3.2409102    32245.856            0    32258.473    12.680882    22.402228    14.077403    19.490552     32.45279   -1.5475185    12.612127     22.30075    14.235163 
   27800    2.9078903    32416.621            0    32427.942    12.678521    22.400495    14.076758    19.254309    32.279478   -1.6120743    12.612127     22.30075    14.235163 
   28000    1.7196266    32584.588            0    32591.282    12.677424    22.400579    14.076038    19.144552    32.287871   -1.6840558    12.612127     22.30075    14.235163 
   28200    2.0994558    32750.878            0    32759.051    12.677952    22.401986    14.075232    19.197459    32.428593   -1.7647289    12.612127     22.30075    14.235163 
   28400    2.4361769     32919.71            0    32929.194    12.678694    22.403854    14.074295    19.271619    32.615469   -1.8584725    12.612127     22.30075    14.235163 
   28600    3.2427718    33088.681            0    33101.305    12.679514    22.405942    14.073251    19.353688    32.824394   -1.9629065    12.612127     22.30075    14.235163 
   28800    2.9642578    33257.816            0    33269.356    12.680417    22.408216    14.072108    19.444016    33.051861    -2.077235    12.612127     22.30075    14.235163 
   29000    1.4783891    33427.964            0    33433.719     12.68122    22.410048    14.071216    19.524398    33.235119   -2.1664319    12.612127     22.30075    14.235163 
   29200    1.3349087    33598.841            0    33604.038    12.682274    22.411235    14.070796    19.629804    33.353897   -2.2085194    12.612127     22.30075    14.235163 
   29400    2.4600233    33767.482            0    33777.058    12.683158    22.411376    14.070669     19.71825    33.368015   -2.2211691    12.612127     22.30075    14.235163 
   29600     2.843896    33936.433            0    33947.504    12.683078    22.410392    14.070361    19.710228     33.26953   -2.2519727    12.612127     22.30075    14.235163 
   29800    2.5168145    34103.722            0    34113.519    12.682272    22.408907    14.069842    19.629653    33.121025   -2.3038982    12.612127     22.30075    14.235163 
   30000    1.6415949    34273.158            0    34279.548    12.681715    22.407741    14.069449    19.573891    33.004355   -2.3432256    12.612127     22.30075    14.235163 
   30200    2.0324991    34442.278            0     34450.19    12.681287    22.406701    14.069093     19.53105    32.900315   -2.3788693    12.612127     22.30075    14.235163 
   30400     2.863552    34613.085            0    34624.233    12.680964    22.405853    14.068698     19.49875    32.815518   -2.4183867    12.612127     22.30075    14.235163 
   30600    2.8661998    34782.236            0    34793.394    12.680776    22.405913     14.06838    19.479975    32.821443   -2.4502265    12.612127     22.30075    14.235163 
   30800    2.3880767    34950.799            0    34960.096    12.680257    22.406441    14.068243    19.427991    32.874258   -2.4638819    12.612127     22.30075    14.235163 
   31000    2.0584006    35119.191            0    35127.204    12.679652    22.406817    14.068271    19.367455     32.91191   -2.4610461    12.612127     22.30075    14.235163 
   31200    2.1446271    35287.609            0    35295.958    12.679572    22.407159    14.068324    19.359478    32.946173   -2.4557485    12.612127     22.30075    14.235163 
   31400     2.791024    35456.749            0    35467.615    12.679818    22.407648    14.068398    19.384115    32.995092   -2.4484332    12.612127     22.30075    14.235163 
   31600    3.0535864    35628.003            0    35639.891    12.680582    22.408288    14.068519    19.460484    33.059048   -2.4362765    12.612127     22.30075    14.235163 
   31800    2.4358304    35796.473            0    35805.955    12.682511     22.40866    14.068495    19.653525    33.096282   -2.4386544    12.612127     22.30075    14.235163 
   32000    1.5229286    35965.886            0    35971.814    12.683888    22.408921    14.068242    19.791306    33.122435   -2.4640411    12.612127     22.30075    14.235163 
   32200    2.3405694    36133.472            0    36142.584    12.684404    22.409709    14.067752    19.842846    33.201203   -2.5130647    12.612127     22.30075    14.235163 
   32400      3.56275    36302.743            0    36316.612    12.684921      22.4113    14.067019    19.894585    33.360384   -2.5863019    12.612127     22.30075    14.235163 
   32600    2.9992316    36472.363            0    36484.039    12.685451     22.41347    14.066095    19.947642    33.577488   -2.6788114    12.612127     22.30075    14.235163 
   32800    1.3143774    36643.298            0    36648.414    12.685367    22.414861    14.065308    19.939218    33.716629   -2.7575337    12.612127     22.30075    14.235163 
   33000    1.9552685    36811.967            0    36819.578    12.684047    22.415363    14.064555    19.807224     33.76689   -2.8328003    12.612127     22.30075    14.235163 
   33200    2.2003106    36984.463            0    36993.029    12.682624    22.415283    14.063443    19.664796    33.758858   -2.9441001    12.612127     22.30075    14.235163 
   33400    3.0045895    37152.484            0    37164.181    12.681942    22.414481    14.061804    19.596572    33.678619   -3.1081032    12.612127     22.30075    14.235163 
   33600    2.7878964    37318.808            0    37329.661    12.681933    22.413325    14.060069     19.59566    33.563032   -3.2816761    12.612127     22.30075    14.235163 
   33800    2.0630611    37486.694            0    37494.725    12.682157    22.412401    14.058565    19.618107    33.470575   -3.4320803    12.612127     22.30075    14.235163 
   34000    2.0009697    37656.142            0    37663.931    12.682344    22.411874    14.057148    19.636785    33.417824   -3.5738616    12.612127     22.30075    14.235163 
   34200    2.1855733    37826.314            0    37834.822    12.682683     22.41132    14.055567    19.670679    33.362354   -3.7320181    12.612127     22.30075    14.235163 
   34400    2.8996509    37994.432            0     38005.72    12.683947    22.410107    14.053493     19.79715    33.241073   -3.9394822    12.612127     22.30075    14.235163 
   34600    1.9321998    38166.764            0    38174.286    12.685393    22.409253     14.05136    19.941809     33.15564   -4.1529475    12.612127     22.30075    14.235163 
   34800    3.2163977     38334.38            0    38346.901    12.685569    22.409372     14.04954    19.959469    33.167552    -4.334934    12.612127     22.30075    14.235163 
   35000    5.1428692    38501.132            0    38521.153    12.685172    22.410013    14.047373    19.919756    33.231688   -4.5517381    12.612127     22.30075    14.235163 
   35200    2.6449414    38670.317            0    38680.614    12.684881    22.410633     14.04561    19.890584    33.293663   -4.7281098    12.612127     22.30075    14.235163 
   35400    1.9321584    38839.375            0    38846.897    12.684649    22.411124    14.044216    19.867374    33.342754   -4.8675807    12.612127     22.30075    14.235163 
   35600    1.7822527    39009.428            0    39016.367    12.684388    22.411657    14.042965    19.841323    33.396146   -4.9928021    12.612127     22.30075    14.235163 
   35800    2.5719565    39179.817            0    39189.829    12.683508    22.412774    14.041828    19.753298    33.507886     -5.10652    12.612127     22.30075    14.235163 
   36000    2.5035338    39351.937            0    39361.683    12.681616    22.413292     14.04109    19.564024      33.5597   -5.1803623    12.612127     22.30075    14.235163 
   36200    3.0534569    39518.645            0    39530.532    12.679874    22.411667    14.041038    19.389711    33.397104   -5.1855006    12.612127     22.30075    14.235163 
   36400    1.9536319    39685.579            0    39693.184    12.679492    22.410317    14.041376    19.351512    33.262105   -5.1517388    12.612127     22.30075    14.235163 
   36600    1.7354181    39854.398            0    39861.154    12.679761    22.409708     14.04177    19.378384    33.201091   -5.1122991    12.612127     22.30075    14.235163 
   36800    2.3545637    40023.337            0    40032.504    12.680293    22.409245    14.042217    19.431596    33.154792   -5.0675932    12.612127     22.30075    14.235163 
   37000    2.7229428    40193.136            0    40203.736    12.680991    22.408736    14.042728    19.501497    33.103884   -5.0164645    12.612127     22.30075    14.235163 
   37200    2.1298578    40365.382            0    40373.673    12.681775    22.408917    14.043292    19.579846    33.122011   -4.9599957    12.612127     22.30075    14.235163 
   37400    4.4492219     40531.96            0     40549.28    12.682593    22.410961    14.044031    19.661671    33.326439   -4.8860935    12.612127     22.30075    14.235163 
   37600     2.247055     40703.89            0    40712.637    12.683024    22.413602    14.044869    19.704798     33.59067   -4.8022475    12.612127     22.30075    14.235163 
   37800    2.4135082    40869.419            0    40878.815    12.683088    22.415153    14.045544    19.711191    33.745832   -4.7347809    12.612127     22.30075    14.235163 
   38000    2.0261163      41039.3            0    41047.188    12.683276    22.416225    14.046247    19.730044     33.85313   -4.6643805    12.612127     22.30075    14.235163 
   38200    2.6371966    41207.878            0    41218.144    12.683515      22.4173    14.046985    19.753931    33.960627   -4.5906055    12.612127     22.30075    14.235163 
   38400    2.9218187    41381.656            0     41393.03    12.683581    22.418191    14.047719     19.76054    34.049792   -4.5171879    12.612127     22.30075    14.235163 
   38600    3.8157257     41550.32            0    41565.175    12.682425    22.417425    14.048031    19.644903    33.973112   -4.4859076    12.612127     22.30075    14.235163 
   38800    2.8666251    41717.105            0    41728.265    12.682288    22.415088    14.047825    19.631239     33.73931   -4.5065157    12.612127     22.30075    14.235163 
   39000    2.3432916    41885.493            0    41894.615    12.682905     22.41259    14.047598    19.692971    33.489421   -4.5293112    12.612127     22.30075    14.235163 
   39200     2.181835    42054.611            0    42063.105    12.683448    22.410701    14.047539    19.747261    33.300521     -4.53516    12.612127     22.30075    14.235163 
   39400    2.6941736    42222.503            0    42232.991    12.684595    22.409207    14.047593    19.862039    33.150994   -4.5297144    12.612127     22.30075    14.235163 
   39600    2.4149419    42391.705            0    42401.106    12.686028     22.40784    14.047687    20.005397    33.014269    -4.520402    12.612127     22.30075    14.235163 
   39800    1.2232191    42563.986            0    42568.748    12.686775    22.407152    14.047875    20.080122    32.945394   -4.5015998    12.612127     22.30075    14.235163 
   40000    3.2987491     42729.53            0    42742.372    12.686242    22.407611    14.048322     20.02679     32.99134   -4.4567918    12.612127     22.30075    14.235163 
   40200    3.0021924    42898.699            0    42910.386    12.685404    22.408352    14.048885    19.942949    33.065518   -4.4005527    12.612127     22.30075    14.235163 
   40400    1.8818173    43067.969            0    43075.295    12.684794     22.40901    14.049357    19.881903    33.131266   -4.3533138    12.612127     22.30075    14.235163 
   40600    1.9897892     43237.12            0    43244.867    12.684414    22.409737    14.049797    19.843942    33.204055    -4.309268    12.612127     22.30075    14.235163 
   40800    1.9586234    43408.199            0    43415.823    12.683949     22.41066    14.050228    19.797334    33.296387   -4.2661955    12.612127     22.30075    14.235163 
   41000    2.9362479    43576.716            0    43588.147    12.684015    22.411424     14.05074    19.803973    33.372786   -4.2149559    12.612127     22.30075    14.235163 
   41200    3.0527121    43744.356            0     43756.24    12.684941    22.411722    14.051242    19.896631    33.402603   -4.1646779    12.612127     22.30075    14.235163 
   41400    2.2916515    43913.498            0    43922.419    12.685779    22.411948    14.051676    19.980423    33.425203    -4.121308    12.612127     22.30075    14.235163 
   41600    2.1838069    44082.655            0    44091.156    12.686553    22.412181    14.052073    20.057875    33.448562    -4.081566    12.612127     22.30075    14.235163 
   41800    2.1361152    44253.228            0    44261.544    12.687305    22.412458    14.052478    20.133084    33.476281   -4.0410342    12.612127     22.30075    14.235163 
   42000    3.9838886    44421.917            0    44437.426    12.687272    22.412389    14.052824    20.129779    33.469335   -4.0064026    12.612127     22.30075    14.235163 
   42200    2.8063178    44593.817            0    44604.742    12.686585    22.411862    14.053085    20.061091    33.416667   -3.9803406    12.612127     22.30075    14.235163 
   42400    2.1521165    44763.196            0    44771.574    12.685649     22.41139    14.053344    19.967457    33.369433   -3.9544089    12.612127     22.30075    14.235163 
   42600    2.8023215    44929.745            0    44940.654    12.684697    22.410952     14.05361     19.87221    33.325561    -3.927821    12.612127     22.30075    14.235163 
   42800    1.9819547    45099.686            0    45107.402    12.684107    22.410243    14.053777    19.813175    33.254637   -3.9111057    12.612127     22.30075    14.235163 
   43000    1.8382707    45268.878            0    45276.034    12.683839    22.409509    14.053685    19.786366    33.181182   -3.9202866    12.612127     22.30075    14.235163 
   43200    3.5208529    45437.298            0    45451.004    12.683742     22.40973    14.053262    19.776624     33.20337   -3.9625969    12.612127     22.30075    14.235163 
   43400    3.0031244    45607.808            0    45619.499    12.683916    22.410707    14.052516    19.794046    33.301105   -4.0372855    12.612127     22.30075    14.235163 
   43600    1.7791393    45777.751            0    45784.677    12.684794    22.412366    14.051781    19.881867    33.466996   -4.1108341    12.612127     22.30075    14.235163 
   43800    2.4128469    45944.935            0    45954.328    12.686754     22.41366    14.051295    20.077969     33.59646   -4.1594451    12.612127     22.30075    14.235163 
   44000    2.1295011     46116.05            0     46124.34    12.689081    22.414274    14.050609    20.310758    33.657888   -4.2280281    12.612127     22.30075    14.235163 
   44200    3.1881992    46281.467            0    46293.878    12.690272    22.414333    14.049387    20.429909    33.663776   -4.3502773    12.612127     22.30075    14.235163 
   44400    1.5291008    46451.568            0     46457.52    12.691007    22.414283    14.048259    20.503448    33.658774   -4.4630891    12.612127     22.30075    14.235163 
   44600    1.4367955    46620.569            0    46626.162    12.691067    22.413853    14.047417    20.509441      33.6158   -4.5473652    12.612127     22.30075    14.235163 
   44800     2.014157    46789.487            0    46797.328     12.69054    22.412839    14.046601    20.456786    33.514404   -4.6289843    12.612127     22.30075    14.235163 
   45000    2.5374059    46959.424            0    46969.302    12.689382     22.41136    14.045729    20.340856    33.366405   -4.7162773    12.612127     22.30075    14.235163 
   45200    2.9111848    47128.575            0    47139.908    12.687369    22.409499    14.044882    20.139471    33.180202   -4.8009547    12.612127     22.30075    14.235163 
   45400    1.9999223    47298.711            0    47306.496    12.685319     22.40849    14.044192    19.934394    33.079231   -4.8700415    12.612127     22.30075    14.235163 
   45600    1.6411595    47465.746            0    47472.135    12.683969    22.408782    14.043671    19.799398    33.108501   -4.9221159    12.612127     22.30075    14.235163 
   45800     1.509309    47634.801            0    47640.676    12.683114    22.409463    14.043291    19.713867    33.176613   -4.9601659    12.612127     22.30075    14.235163 
   46000    3.2406758     47803.66            0    47816.275    12.682512    22.410508    14.042959    19.653653    33.281167   -4.9933636    12.612127     22.30075    14.235163 
   46200    3.0542902    47972.797            0    47984.687    12.681852    22.411828    14.042578    19.587588    33.413212   -5.0314814    12.612127     22.30075    14.235163 
   46400    1.8753492    48142.872            0    48150.173    12.681325    22.412938     14.04224    19.534825    33.524299   -5.0652375    12.612127     22.30075    14.235163 
   46600    1.9958762    48312.224            0    48319.993    12.681656    22.413428    14.041727     19.56798     33.57329   -5.1166433    12.612127     22.30075    14.235163 
   46800    2.6434843    48482.866            0    48493.156    12.683098    22.413538    14.040791    19.712248    33.584277   -5.2102896    12.612127     22.30075    14.235163 
   47000    3.3515587    48650.025            0    48663.072    12.685238     22.41405    14.039249    19.926334    33.635533   -5.3645456    12.612127     22.30075    14.235163 
   47200    2.2386212    48820.615            0     48829.33    12.687368    22.414602    14.037603    20.139423    33.690736   -5.5292202    12.612127     22.30075    14.235163 
   47400    2.3810577    48989.496            0    48998.766    12.688266     22.41426    14.035936    20.229224    33.656554    -5.695998    12.612127     22.30075    14.235163 
   47600    2.7188554    49158.684            0    49169.269    12.688172    22.412894    14.034121    20.219824    33.519915   -5.8775379    12.612127     22.30075    14.235163 
   47800    2.3653659    49328.093            0    49337.301    12.687657    22.411246    14.032372    20.168368    33.354993   -6.0525253    12.612127     22.30075    14.235163 
   48000    1.8804518    49495.794            0    49503.115    12.686769    22.409506    14.030919    20.079515    33.180959   -6.1978224    12.612127     22.30075    14.235163 
   48200    1.0309253    49667.462            0    49671.475    12.685773    22.408294    14.029766    19.979827    33.059651   -6.3132149    12.612127     22.30075    14.235163 
   48400    3.1129974    49833.558            0    49845.677    12.684782    22.408096    14.028219    19.880697     33.03986   -6.4680038    12.612127     22.30075    14.235163 
   48600    2.8602197    50002.449            0    50013.584    12.683894    22.408039    14.026385    19.791846    33.034187   -6.6514123    12.612127     22.30075    14.235163 
   48800    1.9930329    50171.643            0    50179.402    12.683132    22.408002    14.024804    19.715644    33.030437   -6.8095762    12.612127     22.30075    14.235163 
   49000    1.4241085    50343.104            0    50348.648    12.682722     22.40821     14.02347    19.674634    33.051309   -6.9430489    12.612127     22.30075    14.235163 
   49200    3.4039158     50510.12            0    50523.371     12.68383    22.409334     14.02222    19.785501    33.163737   -7.0681718    12.612127     22.30075    14.235163 
   49400    2.9181723    50679.083            0    50690.444    12.685716    22.410926    14.020939    19.974131    33.322985   -7.1963197    12.612127     22.30075    14.235163 
   49600    1.9022221    50849.224            0    50856.629    12.687238     22.41224    14.019857    20.126364    33.454431   -7.3045627    12.612127     22.30075    14.235163 
   49800    2.1925534    51017.849            0    51026.384    12.687946    22.413213     14.01894    20.197193    33.551764   -7.3962216    12.612127     22.30075    14.235163 
   50000    3.2750388    51187.172            0    51199.922    12.688138    22.414237    14.017962    20.216458    33.654206   -7.4940757    12.612127     22.30075    14.235163 
   50200     3.249669    51357.545            0    51370.195    12.688347    22.414777    14.016812    20.237346    33.708262   -7.6091576    12.612127     22.30075    14.235163 
   50400    1.7848916    51526.598            0    51533.547    12.688036    22.414204    14.015667    20.206267    33.650941    -7.723675    12.612127     22.30075    14.235163 
   50600    2.0215773    51693.963            0    51701.833    12.686965    22.413153    14.014645    20.099125    33.545777   -7.8259141    12.612127     22.30075    14.235163 
   50800    2.5645476    51863.052            0    51873.035    12.685765    22.412177    14.013543    19.979052    33.448127   -7.9362368    12.612127     22.30075    14.235163 
   51000    3.4069741    52033.671            0    52046.934    12.684533    22.411334    14.012262    19.855799    33.363833   -8.0643936    12.612127     22.30075    14.235163 
   51200    3.2494496    52201.575            0    52214.225    12.684014    22.410981    14.010952    19.803884    33.328478   -8.1953888    12.612127     22.30075    14.235163 
   51400    1.2295665    52373.677            0    52378.463     12.68442    22.411007    14.010175    19.844457     33.33112   -8.2730876    12.612127     22.30075    14.235163 
   51600    2.0954481    52541.868            0    52550.025    12.685905    22.411425    14.009791    19.993046    33.372943   -8.3115174    12.612127     22.30075    14.235163 
   51800    3.2990033    52709.276            0    52722.119    12.687709     22.41189    14.009437    20.173542    33.419436   -8.3469529    12.612127     22.30075    14.235163 
   52000    2.2198288     52879.25            0    52887.891    12.689187    22.412114    14.009254    20.321353    33.441869   -8.3652841    12.612127     22.30075    14.235163 
   52200    1.5466407    53050.135            0    53056.156    12.690023    22.412105    14.009303    20.404989    33.440951   -8.3604037    12.612127     22.30075    14.235163 
   52400    2.6355496    53217.974            0    53228.234    12.690353    22.412028    14.009599    20.438068     33.43323   -8.3307596    12.612127     22.30075    14.235163 
   52600    2.7024502    53386.909            0    53397.429    12.689748    22.411958    14.010005    20.377491    33.426238   -8.2901891    12.612127     22.30075    14.235163 
   52800    2.4643533    53554.947            0     53564.54    12.687806    22.412082    14.010265    20.183232    33.438601   -8.2641092    12.612127     22.30075    14.235163 
   53000     1.551055    53726.017            0    53732.055    12.685828    22.412626    14.010367    19.985389    33.493008   -8.2539032    12.612127     22.30075    14.235163 
   53200    2.4324062    53895.155            0    53904.625    12.684668    22.414044    14.010076    19.869274    33.634946   -8.2830102    12.612127     22.30075    14.235163 
   53400     2.542998    54068.487            0    54078.387    12.683652     22.41632    14.009469     19.76765    33.862605   -8.3438043    12.612127     22.30075    14.235163 
   53600    2.9928909    54236.307            0    54247.958    12.682573    22.418597    14.008779    19.659727    34.090358   -8.4127551    12.612127     22.30075    14.235163 
   53800    2.2927692     54404.06            0    54412.986    12.681624    22.420083    14.008014    19.564767    34.239055   -8.4893471    12.612127     22.30075    14.235163 
   54000    2.2351464    54572.414            0    54581.115    12.680765    22.420074    14.007131    19.478889    34.238146     -8.57771    12.612127     22.30075    14.235163 
   54200    2.4939178    54740.916            0    54750.624    12.680103    22.419182    14.006338    19.412625    34.148927   -8.6569476    12.612127     22.30075    14.235163 
   54400    2.6126981    54908.979            0     54919.15    12.679899    22.417496    14.005983    19.392182     33.98027   -8.6925316    12.612127     22.30075    14.235163 
   54600    2.0928669    55076.905            0    55085.053    12.679376    22.415182    14.006047     19.33988    33.748749   -8.6861071    12.612127     22.30075    14.235163 
   54800    1.0805143    55246.313            0    55250.519    12.678968    22.413389    14.006185    19.299056    33.569354   -8.6723366    12.612127     22.30075    14.235163 
   55000    1.6035062    55415.084            0    55421.327    12.678956    22.412004    14.006246    19.297891    33.430788   -8.6661606    12.612127     22.30075    14.235163 
   55200    2.1194246    55584.938            0    55593.189     12.67931    22.410318    14.006226    19.333315    33.262171   -8.6681866    12.612127     22.30075    14.235163 
   55400    2.6217602    55753.999            0    55764.205    12.680507    22.408078    14.005947    19.453022    33.038086   -8.6961169    12.612127     22.30075    14.235163 
   55600    2.3726242    55925.228            0    55934.464    12.682142    22.406187    14.005588    19.616563    32.848899   -8.7320646    12.612127     22.30075    14.235163 
   55800    3.1823258    56092.233            0    56104.622    12.683129    22.406155     14.00564    19.715291    32.845648   -8.7267759    12.612127     22.30075    14.235163 
   56000    2.0543067    56260.726            0    56268.723    12.683934    22.407115    14.005744    19.795895    32.941714    -8.716456    12.612127     22.30075    14.235163 
   56200    1.4487223    56430.359            0    56435.998    12.684724    22.408029    14.005851    19.874882    33.033154   -8.7057004    12.612127     22.30075    14.235163 
   56400    1.9267609    56600.452            0    56607.953     12.68526    22.409705    14.005983    19.928488     33.20085   -8.6924903    12.612127     22.30075    14.235163 
   56600    2.7442195     56768.94            0    56779.623    12.684814     22.41265     14.00617    19.883884    33.495418   -8.6738428    12.612127     22.30075    14.235163 
   56800    2.5244377    56938.164            0    56947.992    12.683535    22.415578    14.006469    19.755927     33.78833   -8.6438534    12.612127     22.30075    14.235163 
   57000    1.9044902    57108.523            0    57115.937    12.682218    22.417687    14.006672    19.624236    33.999392   -8.6235634    12.612127     22.30075    14.235163 
   57200    2.2425323    57278.424            0    57287.154    12.681899    22.418886    14.006656    19.592276    34.119319   -8.6251999    12.612127     22.30075    14.235163 
   57400    3.6128763    57448.193            0    57462.258    12.681924    22.418918    14.006969    19.594806    34.122515   -8.5939074    12.612127     22.30075    14.235163 
   57600    3.0955524    57613.691            0    57625.742    12.682128    22.417175    14.007691    19.615206    33.948103   -8.5216888    12.612127     22.30075    14.235163 
   57800    2.1006739    57782.897            0    57791.074    12.682281    22.415435    14.008351    19.630516     33.77409   -8.4555798    12.612127     22.30075    14.235163 
   58000    1.9295071    57953.408            0     57960.92    12.681936    22.413659    14.008833     19.59596    33.596392   -8.4073966    12.612127     22.30075    14.235163 
   58200    3.2133883    58121.255            0    58133.765     12.68037    22.411419    14.009039    19.439336    33.372322   -8.3867371    12.612127     22.30075    14.235163 
   58400    2.5493105    58290.854            0    58300.778     12.67841    22.409165    14.009131    19.243222    33.146782   -8.3775977    12.612127     22.30075    14.235163 
   58600    1.3381135    58460.101            0     58465.31    12.677025    22.407531     14.00904      19.1047    32.983367   -8.3867288    12.612127     22.30075    14.235163 
   58800    1.4274782    58629.722            0    58635.279    12.676534    22.406536    14.008856    19.055572    32.883815   -8.4050453    12.612127     22.30075    14.235163 
   59000    2.0249995    58798.979            0    58806.862    12.676904    22.406388    14.008705    19.092609     32.86897   -8.4202259    12.612127     22.30075    14.235163 
   59200     2.558831     58968.98            0    58978.941    12.677752    22.407438    14.008488    19.177415    32.974082   -8.4419452    12.612127     22.30075    14.235163 
   59400    3.0318094    59137.653            0    59149.456    12.678846    22.409355    14.008184     19.28689    33.165827   -8.4722812    12.612127     22.30075    14.235163 
   59600     2.169675    59305.885            0    59314.331    12.680274    22.411003    14.007783    19.429766    33.330705   -8.5124162    12.612127     22.30075    14.235163 
   59800    1.5859959    59474.185            0    59480.359    12.681973    22.411887    14.007293    19.599653    33.419126   -8.5614411    12.612127     22.30075    14.235163 
   60000    1.6160114    59644.601            0    59650.892    12.683706    22.412708    14.006758    19.773037    33.501266   -8.6149703    12.612127     22.30075    14.235163 
   60200    2.3564899    59813.289            0    59822.463    12.684859    22.413779    14.005812    19.888442    33.608434   -8.7096131    12.612127     22.30075    14.235163 
   60400    2.4846039    59983.344            0    59993.016    12.685496    22.414791    14.004606    19.952122    33.709626   -8.8302478    12.612127     22.30075    14.235163 
   60600    2.5917655    60152.121            0    60162.211    12.686072    22.415143    14.003501    20.009773    33.744895   -8.9408257    12.612127     22.30075    14.235163 
   60800    2.0036754    60320.875            0    60328.675    12.686518    22.415241    14.002767    20.054332    33.754704   -9.0142457    12.612127     22.30075    14.235163 
   61000    1.4354632    60489.595            0    60495.183    12.686687    22.414944    14.002405    20.071333    33.724989   -9.0504484    12.612127     22.30075    14.235163 
   61200    1.9035706    60658.925            0    60666.336    12.686366    22.414059    14.001998    20.039176    33.636385   -9.0912256    12.612127     22.30075    14.235163 
   61400    2.5129989    60830.794            0    60840.577    12.685271    22.412329    14.001192    19.929643    33.463372   -9.1718371    12.612127     22.30075    14.235163 
   61600    2.7914702    60999.288            0    61010.155    12.684892    22.409851    13.999856    19.891675    33.215396   -9.3055052    12.612127     22.30075    14.235163 
   61800    2.3708328    61166.551            0    61175.781    12.684938    22.408493    13.998153    19.896266     33.07962   -9.4758031    12.612127     22.30075    14.235163 
   62000    1.8425058    61334.702            0    61341.875    12.684977     22.40857    13.996656    19.900175    33.087253   -9.6256187    12.612127     22.30075    14.235163 
   62200    2.0033275    61503.982            0    61511.781    12.684909    22.408922     13.99524    19.893454    33.122496   -9.7672351    12.612127     22.30075    14.235163 
   62400    3.5274559    61673.729            0    61687.461    12.684504    22.409078    13.993539    19.852904    33.138097   -9.9374639    12.612127     22.30075    14.235163 
   62600    4.0169647    61844.218            0    61859.856    12.683674    22.408908    13.991396    19.769902    33.121112   -10.151826    12.612127     22.30075    14.235163 
   62800    1.7178693    62014.385            0    62021.072    12.682798    22.408557    13.990126    19.682271     33.08595   -10.278869    12.612127     22.30075    14.235163 
   63000    2.7529078    62180.401            0    62191.118    12.681648    22.408645    13.989539    19.567198    33.094743   -10.337586    12.612127     22.30075    14.235163 
   63200    2.2115047    62351.009            0    62359.618    12.680498    22.408801    13.989088    19.452152    33.110387   -10.382702    12.612127     22.30075    14.235163 
   63400    1.6431857    62522.573            0     62528.97    12.680223    22.408851    13.988965    19.424595    33.115386   -10.394978    12.612127     22.30075    14.235163 
   63600    3.0184829    62691.025            0    62702.775    12.681317    22.409658    13.989107    19.534039    33.196168   -10.380831    12.612127     22.30075    14.235163 
   63800     3.433377    62856.918            0    62870.284    12.683173    22.411418    13.989243    19.719705    33.372231   -10.367239    12.612127     22.30075    14.235163 
   64000    1.7072955    63028.213            0    63034.859    12.684713    22.412705    13.989395    19.873799    33.500911   -10.352024    12.612127     22.30075    14.235163 
   64200    2.3576052    63195.725            0    63204.903    12.686026    22.412538    13.989765    20.005123    33.484293   -10.315012    12.612127     22.30075    14.235163 
   64400    2.8766515    63364.418            0    63375.616    12.687462    22.411983    13.990148    20.148848    33.428746   -10.276698    12.612127     22.30075    14.235163 
   64600    2.1401867    63534.364            0    63542.695    12.688801     22.41136    13.990507    20.282781    33.366396   -10.240809    12.612127     22.30075    14.235163 
   64800    1.4879673    63702.833            0    63708.625    12.689327    22.410551    13.990738    20.335427    33.285497   -10.217609    12.612127     22.30075    14.235163 
   65000    1.8727813    63871.849            0    63879.139    12.689462     22.40958     13.99095    20.348856    33.188357   -10.196395    12.612127     22.30075    14.235163 
   65200     3.167212    64041.074            0    64053.404    12.689602    22.408077    13.991294    20.362875    33.037982   -10.162024    12.612127     22.30075    14.235163 
   65400    2.3896648    64212.418            0    64221.721     12.68971    22.406677    13.991761    20.373667     32.89791   -10.115269    12.612127     22.30075    14.235163 
   65600     2.468035    64380.355            0    64389.963    12.689368    22.406234    13.992558    20.339482    32.853623   -10.035576    12.612127     22.30075    14.235163 
   65800    2.1590975    64549.213            0    64557.618    12.688436    22.406219    13.993666    20.246293    32.852124   -9.9247291    12.612127     22.30075    14.235163 
   66000    1.3909603    64718.255            0     64723.67    12.687439      22.4068    13.994521    20.146502    32.910223   -9.8392126    12.612127     22.30075    14.235163 
   66200    1.3421709    64887.483            0    64892.708    12.686312    22.407478    13.995063    20.033793    32.978037   -9.7849299    12.612127     22.30075    14.235163 
   66400    2.5631797    65056.836            0    65066.814    12.684944    22.408491    13.995645    19.896867    33.079381   -9.7267663    12.612127     22.30075    14.235163 
   66600     3.013273    65225.504            0    65237.235     12.68383    22.410245    13.996059    19.785439    33.254874   -9.6853277    12.612127     22.30075    14.235163 
   66800    1.9892434    65395.497            0    65403.241     12.68319    22.412147    13.996286     19.72145    33.445147   -9.6625796    12.612127     22.30075    14.235163 
   67000    1.8670103      65564.3            0    65571.568    12.682767     22.41273    13.996735    19.679109    33.503416   -9.6176594    12.612127     22.30075    14.235163 
   67200    3.1542871    65734.445            0    65746.725    12.682872    22.412369    13.997305    19.689653    33.467305   -9.5606309    12.612127     22.30075    14.235163 
   67400    3.7003532    65902.307            0    65916.712    12.683298     22.41168    13.997963    19.732281    33.398381   -9.4948448    12.612127     22.30075    14.235163 
   67600    1.9843206    66073.624            0    66081.349    12.684409    22.410799    13.998395    19.843429    33.310286   -9.4516519    12.612127     22.30075    14.235163 
   67800    2.5493859    66241.144            0    66251.069    12.685755    22.410007    13.999008    19.978031    33.231041   -9.3902921    12.612127     22.30075    14.235163 
   68000    2.6308443    66410.411            0    66420.653    12.686306    22.409087    14.000133    20.033213    33.139047   -9.2777575    12.612127     22.30075    14.235163 
   68200    1.7237791    66580.092            0    66586.803    12.686699    22.407603    14.001319    20.072449    32.990509   -9.1591081    12.612127     22.30075    14.235163 
   68400    1.6045131    66747.797            0    66754.044    12.686952    22.406103    14.002354    20.097753    32.840475    -9.055584    12.612127     22.30075    14.235163 
   68600    2.1928586    66917.275            0    66925.811    12.687076    22.404206    14.003533    20.110205    32.650677   -8.9376057    12.612127     22.30075    14.235163 
   68800    3.2106419    67087.418            0    67099.917    12.686616    22.402119    14.005331    20.064163    32.441953   -8.7577807    12.612127     22.30075    14.235163 
   69000    2.9545629    67255.517            0    67267.019     12.68595    22.401364    14.007063     19.99755    32.366381   -8.5844931    12.612127     22.30075    14.235163 
   69200    2.1051434    67424.718            0    67432.913    12.684997    22.401661    14.008357    19.902252    32.396073   -8.4549994    12.612127     22.30075    14.235163 
   69400    2.1667214    67593.481            0    67601.916    12.683576    22.402134    14.009453    19.760021    32.443434   -8.3454079    12.612127     22.30075    14.235163 
   69600    2.4845389    67762.154            0    67771.826    12.682451    22.403083    14.010557    19.647536    32.538384   -8.2349176    12.612127     22.30075    14.235163 
   69800    2.4312368    67931.483            0    67940.947    12.681577    22.404437     14.01172    19.560034    32.673805   -8.1185223    12.612127     22.30075    14.235163 
   70000    2.0170432    68102.721            0    68110.573    12.680839    22.405767    14.012931    19.486268    32.806902   -7.9974403    12.612127     22.30075    14.235163 
   70200    4.8806158     68269.44            0     68288.44    12.680068    22.406471    14.014614    19.409084    32.877282   -7.8290087    12.612127     22.30075    14.235163 
   70400    2.3667936    68441.168            0    68450.382    12.679325    22.407306    14.016454    19.334764    32.960788   -7.6450129    12.612127     22.30075    14.235163 
   70600    2.2703764    68609.296            0    68618.134    12.678874    22.408079    14.018027    19.289693    33.038174   -7.4876047    12.612127     22.30075    14.235163 
   70800    2.6252119    68777.392            0    68787.612    12.679039    22.408689    14.019468    19.306172    33.099173    -7.343399    12.612127     22.30075    14.235163 
   71000    2.2704025    68946.487            0    68955.325    12.679902    22.408997    14.020655    19.392485    33.129996    -7.224709    12.612127     22.30075    14.235163 
   71200    1.5514805    69116.242            0    69122.281     12.68104     22.40934     14.02158    19.506306    33.164279   -7.1321752    12.612127     22.30075    14.235163 
   71400     2.247168    69284.254            0    69293.002    12.682584    22.410015    14.022335    19.660797    33.231832   -7.0566469    12.612127     22.30075    14.235163 
   71600    3.5535797    69453.645            0    69467.479    12.684512    22.411091     14.02322    19.853652    33.339539   -6.9680624    12.612127     22.30075    14.235163 
   71800     2.525865    69622.915            0    69632.748    12.686435    22.412199    14.024151    20.046052    33.450292   -6.8749754    12.612127     22.30075    14.235163 
   72000    1.4673737    69793.966            0    69799.679    12.687709    22.412696    14.024896     20.17358    33.500057   -6.8004106    12.612127     22.30075    14.235163 
   72200    2.2998598    69961.617            0     69970.57    12.688007    22.412771    14.025633    20.203394    33.507539   -6.7267019    12.612127     22.30075    14.235163 
   72400    2.6721791    70130.711            0    70141.114    12.687294    22.412644    14.026725    20.132055    33.494821   -6.6174806    12.612127     22.30075    14.235163 
   72600    2.3603605    70300.166            0    70309.355    12.685964    22.412207    14.028057     19.99896    33.451111   -6.4842102    12.612127     22.30075    14.235163 
   72800    1.7812107    70468.285            0    70475.219    12.683811     22.41178    14.029044    19.783577    33.408379   -6.3854692    12.612127     22.30075    14.235163 
   73000    1.2474666    70637.273            0     70642.13    12.681832    22.411484      14.0297    19.585618    33.378777   -6.3198471    12.612127     22.30075    14.235163 
   73200    1.9617978    70806.953            0     70814.59    12.679884    22.411253    14.030303    19.390714    33.355734   -6.2594743    12.612127     22.30075    14.235163 
   73400    2.5832592    70977.135            0    70987.191    12.677475    22.410982    14.030929    19.149718    33.328536   -6.1968394    12.612127     22.30075    14.235163 
   73600    2.5744156     71146.59            0    71156.612    12.675266    22.409869    14.031321      18.9287    33.217258    -6.157666    12.612127     22.30075    14.235163 
   73800    2.1982121    71316.107            0    71324.665    12.673545      22.4077    14.031455    18.756586    33.000209   -6.1442466    12.612127     22.30075    14.235163 
   74000    1.9966055    71485.306            0    71493.078    12.672687    22.406498    14.031601    18.670671    32.879998   -6.1296039    12.612127     22.30075    14.235163 
   74200      3.03436    71652.775            0    71664.587    12.672788    22.406547    14.031607    18.680758     32.88491    -6.129002    12.612127     22.30075    14.235163 
   74400    2.7251735    71822.829            0    71833.438    12.673428    22.406791    14.031494    18.744872    32.909347   -6.1403068    12.612127     22.30075    14.235163 
   74600    1.9482071     71991.18            0    71998.765    12.674724     22.40741    14.031282    18.874437    32.971239   -6.1615071    12.612127     22.30075    14.235163 
   74800    1.6559639     72160.07            0    72166.517    12.676357    22.408241    14.031042     19.03782    33.054368   -6.1855423    12.612127     22.30075    14.235163 
   75000    2.7827131    72329.323            0    72340.156    12.678008    22.408719    14.030698    19.203029    33.102175   -6.2199665    12.612127     22.30075    14.235163 
   75200    3.5795904    72498.125            0     72512.06    12.680049    22.409006    14.030092    19.407191    33.130932   -6.2805539    12.612127     22.30075    14.235163 
   75400    2.0176385     72668.98            0    72676.834    12.681972    22.409382    14.029473    19.599552    33.168528   -6.3425332    12.612127     22.30075    14.235163 
   75600    2.2418732    72837.317            0    72846.045    12.682793    22.409974    14.028747    19.681774    33.227778     -6.41517    12.612127     22.30075    14.235163 
   75800    2.8913859    73005.466            0    73016.722    12.682537    22.410576    14.027894    19.656078    33.287924   -6.5004591    12.612127     22.30075    14.235163 
   76000    2.1602498    73175.134            0    73183.543    12.682286      22.4109     14.02698    19.630959    33.320426    -6.591939    12.612127     22.30075    14.235163 
   76200    1.2803643    73344.624            0    73349.608    12.682286    22.411023    14.026196    19.630994    33.332732   -6.6703215    12.612127     22.30075    14.235163 
   76400     1.812777    73513.958            0    73521.015    12.682054    22.411179    14.025428    19.607818     33.34834   -6.7471706    12.612127     22.30075    14.235163 
   76600    2.1503149     73685.79            0    73694.161    12.681056    22.411196    14.024721     19.50796    33.349972   -6.8179457    12.612127     22.30075    14.235163 
   76800    3.3628683    73852.045            0    73865.137    12.679019    22.410667    14.024656     19.30419    33.297095   -6.8243819    12.612127     22.30075    14.235163 
   77000    2.4526563    74020.095            0    74029.643    12.677148    22.409922    14.024938    19.116957     33.22258   -6.7961999    12.612127     22.30075    14.235163 
   77200    1.7050109    74189.801            0    74196.439    12.675766    22.409393     14.02524    18.978723    33.169571    -6.765958    12.612127     22.30075    14.235163 
   77400    2.0057471    74359.444            0    74367.252    12.674896    22.409115    14.025676    18.891675    33.141796   -6.7224104    12.612127     22.30075    14.235163 
   77600    2.1373634    74530.431            0    74538.751    12.675379    22.409218    14.026476    18.940027    33.152066   -6.6423425    12.612127     22.30075    14.235163 
   77800     2.928637    74698.125            0    74709.526    12.676224    22.410048    14.027472    19.024577    33.235119   -6.5426664    12.612127     22.30075    14.235163 
   78000    2.1486232    74868.562            0    74876.927    12.676951    22.411435    14.028533    19.097237     33.37389   -6.4365621    12.612127     22.30075    14.235163 
   78200    2.2758676    75037.117            0    75045.976    12.677081    22.412879    14.029344    19.110235    33.518394   -6.3554048    12.612127     22.30075    14.235163 
   78400    4.3241472    75205.112            0    75221.945    12.676844    22.414996     14.03005    19.086599    33.730149   -6.2848071    12.612127     22.30075    14.235163 
   78600    2.4133048    75380.445            0     75389.84    12.676909    22.416839     14.03074    19.093067    33.914493    -6.215804    12.612127     22.30075    14.235163 
   78800    2.7871224    75544.161            0    75555.011    12.677159    22.416179    14.031193    19.118044    33.848491    -6.170501    12.612127     22.30075    14.235163 
   79000    2.3478414    75711.425            0    75720.565    12.677072    22.414606    14.031636    19.109393      33.6911   -6.1261043    12.612127     22.30075    14.235163 
   79200    2.0918386    75880.564            0    75888.707    12.676998    22.413266    14.032005    19.102005    33.557111   -6.0892178    12.612127     22.30075    14.235163 
   79400     2.349631    76049.659            0    76058.806    12.676979    22.412055    14.032327    19.100069    33.435887   -6.0570153    12.612127     22.30075    14.235163 
   79600    2.6103193    76219.097            0    76229.259    12.677012    22.410857    14.032629    19.103344    33.316123   -6.0267445    12.612127     22.30075    14.235163 
   79800    2.5930331    76390.126            0     76400.22    12.677293    22.409979    14.032758    19.131489    33.228274   -6.0138983    12.612127     22.30075    14.235163 
   80000    3.5404585    76557.993            0    76571.776    12.678012    22.409183    14.032813    19.203454    33.148638   -6.0083508    12.612127     22.30075    14.235163 
   80200    2.3018462    76726.878            0    76735.839    12.678137    22.408994    14.033138     19.21595    33.129684   -5.9758436    12.612127     22.30075    14.235163 
   80400    1.7412268    76895.937            0    76902.715    12.678215    22.408838    14.033359    19.223747    33.114052   -5.9537346    12.612127     22.30075    14.235163 
   80600    2.3919831    77064.554            0    77073.865    12.678366    22.408655    14.033478    19.238854     33.09574   -5.9418132    12.612127     22.30075    14.235163 
   80800    2.8655157    77236.032            0    77247.187    12.678559    22.408664    14.033553    19.258105    33.096687   -5.9343737    12.612127     22.30075    14.235163 
   81000    3.3353279     77405.14            0    77418.124     12.67915    22.409513    14.033445    19.317287     33.18165   -5.9451637    12.612127     22.30075    14.235163 
   81200    1.8648284    77575.273            0    77582.532    12.680887     22.41074    14.033232    19.491076    33.304327    -5.966495    12.612127     22.30075    14.235163 
   81400    1.8919888    77741.703            0    77749.068    12.681895     22.41173    14.033135    19.591875    33.403403   -5.9761991    12.612127     22.30075    14.235163 
   81600    2.1099783    77910.778            0    77918.992    12.682197    22.412528    14.033127    19.622055    33.483215   -5.9769594    12.612127     22.30075    14.235163 
   81800    3.4611056    78079.429            0    78092.903    12.682369    22.413391    14.033186    19.639266    33.569626    -5.971105    12.612127     22.30075    14.235163 
   82000    2.6794632    78249.407            0    78259.838    12.682672    22.414492    14.033197    19.669664    33.679697   -5.9699965    12.612127     22.30075    14.235163 
   82200    1.2657667     78419.49            0    78424.417    12.683137    22.414854     14.03301    19.716142    33.715944   -5.9886307    12.612127     22.30075    14.235163 
   82400    1.7935254    78588.359            0    78595.341    12.683365    22.413555    14.032974    19.738936    33.585968   -5.9922509    12.612127     22.30075    14.235163 
   82600    2.9986832    78755.916            0     78767.59    12.683367    22.411874    14.032997    19.739123    33.417868   -5.9900247    12.612127     22.30075    14.235163 
   82800    2.5605847    78925.056            0    78935.024    12.683309    22.410412    14.033043    19.733308    33.271606   -5.9853474    12.612127     22.30075    14.235163 
   83000    1.7856193    79094.219            0     79101.17    12.683218    22.409169    14.033031    19.724223    33.147204   -5.9866066    12.612127     22.30075    14.235163 
   83200    1.6695357    79263.797            0    79270.297    12.683229    22.408086    14.032939    19.725379     33.03888   -5.9958235    12.612127     22.30075    14.235163 
   83400     3.052014    79434.338            0     79446.22    12.683426    22.406637    14.032779    19.745037    32.893949   -6.0118189    12.612127     22.30075    14.235163 
   83600    2.5051178     79605.28            0    79615.032    12.682795    22.405772    14.032779    19.681957    32.807363   -6.0118254    12.612127     22.30075    14.235163 
   83800    2.1777072    79772.123            0      79780.6    12.682033    22.406556     14.03223    19.605679    32.885841   -6.0667096    12.612127     22.30075    14.235163 
   84000    1.7822692     79941.17            0    79948.109    12.680819    22.407554    14.031513    19.484253    32.985659   -6.1384576    12.612127     22.30075    14.235163 
[...]
  150800    1.9349787    136431.96            0     136439.5    12.681691    22.416507    13.788317    19.571435    33.881298   -30.468257    12.612127     22.30075    14.235163 
  151000    2.5860261    136601.27            0    136611.34    12.681605    22.416597    13.788879    19.562925    33.890363   -30.412025    12.612127     22.30075    14.235163 
  151200    2.3997033     136770.9            0    136780.25    12.681957     22.41639    13.789483    19.598113    33.869622   -30.351623    12.612127     22.30075    14.235163 
  151400    2.3988055    136939.53            0    136948.87    12.682272    22.416155    13.790044     19.62958    33.846069   -30.295449    12.612127     22.30075    14.235163 
  151600    1.9455792    137110.42            0       137118    12.682274    22.415889    13.790516    19.629809    33.819453   -30.248224    12.612127     22.30075    14.235163 
  151800    3.3413808    137278.82            0    137291.83    12.682281    22.414609    13.791361    19.630523     33.69139   -30.163721    12.612127     22.30075    14.235163 
  152000    3.3140523    137446.87            0    137459.77    12.682936    22.412759    13.792785    19.696016    33.506349    -30.02123    12.612127     22.30075    14.235163 
  152200    1.9708327    137616.49            0    137624.16    12.683545     22.41101    13.793832    19.756974    33.331354   -29.916531    12.612127     22.30075    14.235163 
  152400    2.2080113    137784.94            0    137793.53    12.683858    22.409176    13.794566    19.788287    33.147868   -29.843076    12.612127     22.30075    14.235163 
  152600    2.6911729     137954.1            0    137964.58    12.684082    22.407194    13.795315    19.810641    32.949583   -29.768157    12.612127     22.30075    14.235163 
  152800    3.1087227     138123.6            0    138135.71    12.684339    22.405071    13.796146    19.836379    32.737285    -29.68507    12.612127     22.30075    14.235163 
  153000    2.0416174    138294.92            0    138302.86    12.684853     22.40323    13.796909    19.887771    32.553061   -29.608667    12.612127     22.30075    14.235163 
  153200     1.988263    138462.11            0    138469.85    12.685342    22.402318      13.7977    19.936695    32.461811   -29.529597    12.612127     22.30075    14.235163 
  153400    1.9808116    138631.13            0    138638.84    12.685632    22.402436    13.798676    19.965705    32.473667   -29.431945    12.612127     22.30075    14.235163 
  153600    2.9517376    138800.65            0    138812.14    12.685987    22.403263      13.7998    20.001232    32.556373   -29.319504    12.612127     22.30075    14.235163 
  153800    3.5671711    138969.04            0    138982.93    12.686298    22.405362    13.801274    20.032388     32.76637   -29.171966    12.612127     22.30075    14.235163 
  154000    1.8917844    139138.38            0    139145.74    12.686484    22.407415    13.802615    20.051007    32.971784   -29.037851    12.612127     22.30075    14.235163 
  154200    1.9555754    139307.32            0    139314.93    12.686927    22.408839    13.803814     20.09527    33.114239   -28.917928    12.612127     22.30075    14.235163 
  154400    2.0196732    139478.51            0    139486.38    12.687487    22.410209    13.805155    20.151293    33.251272   -28.783714    12.612127     22.30075    14.235163 
  154600    3.3536919    139645.93            0    139658.98    12.687323    22.412138    13.806866    20.134875    33.444224   -28.612588    12.612127     22.30075    14.235163 
  154800    2.6502517     139814.6            0    139824.92     12.68671     22.41392    13.808724    20.073633    33.622472   -28.426731    12.612127     22.30075    14.235163 
  155000    1.8582143    139984.34            0    139991.57    12.686136    22.415247    13.810294     20.01615    33.755291     -28.2696    12.612127     22.30075    14.235163 
  155200    2.1997169    140153.39            0    140161.95     12.68511    22.415955    13.812035      19.9135    33.826143   -28.095452    12.612127     22.30075    14.235163 
  155400     2.840038       140322            0    140333.06    12.683659    22.416177    13.814162    19.768353     33.84832   -27.882649    12.612127     22.30075    14.235163 
  155600    2.4532424    140491.24            0    140500.79    12.682171    22.416351    13.816339    19.619534    33.865716   -27.664843    12.612127     22.30075    14.235163 
  155800    1.4945155    140660.54            0    140666.36    12.680872    22.415916    13.818301     19.48954    33.822149   -27.468644    12.612127     22.30075    14.235163 
  156000    1.2460005    140830.61            0    140835.46    12.680106    22.414821     13.82025    19.412909    33.712673   -27.273618    12.612127     22.30075    14.235163 
  156200    3.0897225     140998.6            0    141010.63    12.678983    22.412689     13.82276    19.300583    33.499353    -27.02256    12.612127     22.30075    14.235163 
  156400    2.7068727    141168.17            0    141178.71    12.677797    22.410051    13.825545    19.181936    33.235399   -26.743884    12.612127     22.30075    14.235163 
  156600    1.9659236    141337.07            0    141344.73    12.677055    22.407689    13.827801    19.107698    32.999155   -26.518226    12.612127     22.30075    14.235163 
  156800    1.8284557    141506.79            0    141513.91    12.676549    22.406394    13.829566    19.057094    32.869608   -26.341589    12.612127     22.30075    14.235163 
  157000    3.5297207     141675.5            0    141689.24    12.676734    22.406237    13.831614    19.075619    32.853922   -26.136785    12.612127     22.30075    14.235163 
  157200    2.9661406    141845.14            0    141856.69    12.677763    22.406112    13.834084    19.178547    32.841394   -25.889632    12.612127     22.30075    14.235163 
  157400     2.298225    142014.82            0    142023.76    12.679606    22.406514    13.836056    19.362846    32.881573   -25.692399    12.612127     22.30075    14.235163 
  157600    2.2016676    142184.16            0    142192.74    12.681734    22.407304    13.837747    19.575751     32.96062   -25.523144    12.612127     22.30075    14.235163 
  157800    2.3554281    142354.36            0    142363.53    12.683402    22.408306    13.839266    19.742661    33.060893   -25.371173    12.612127     22.30075    14.235163 
  158000    4.1024268    142521.27            0    142537.24    12.685002    22.408981    13.841157    19.902745    33.128385      -25.182    12.612127     22.30075    14.235163 
  158200    1.5412975    142693.59            0    142699.59    12.685836    22.408786    13.843255     19.98616     33.10892   -24.972136    12.612127     22.30075    14.235163 
  158400    2.2311367    142859.34            0    142868.02    12.685231     22.40822    13.845167    19.925635    33.052276   -24.780823    12.612127     22.30075    14.235163 
  158600    2.4596404    143028.32            0     143037.9    12.684252    22.407967    13.847204    19.827658     33.02697   -24.577067    12.612127     22.30075    14.235163 
  158800    2.6117183    143197.35            0    143207.51    12.682936    22.407673    13.849416    19.695994    32.997566   -24.355826    12.612127     22.30075    14.235163 
  159000    2.2531286    143366.47            0    143375.24    12.681476    22.407378     13.85165    19.549951    32.968031   -24.132331    12.612127     22.30075    14.235163 
  159200    1.7187396    143535.62            0    143542.31    12.680189    22.407119    13.853619    19.421217     32.94208   -23.935303    12.612127     22.30075    14.235163 
  159400    1.9784297    143705.23            0    143712.93    12.678934    22.406961    13.855446    19.295625    32.926284   -23.752519    12.612127     22.30075    14.235163 
  159600    3.1856414    143874.83            0    143887.24    12.677392    22.407376    13.857356    19.141412    32.967828   -23.561414    12.612127     22.30075    14.235163 
  159800    2.9144427    144044.09            0    144055.44    12.676786    22.408493    13.859158    19.080763    33.079531   -23.381199    12.612127     22.30075    14.235163 
  160000    2.2180497    144212.17            0    144220.81    12.677526    22.409609    13.860645    19.154805    33.191252   -23.232448    12.612127     22.30075    14.235163 
  160200    1.8527523    144382.13            0    144389.35    12.678225    22.410449    13.861892    19.224728    33.275273   -23.107712    12.612127     22.30075    14.235163 
  160400    2.3952954    144550.58            0     144559.9    12.679266    22.410433    13.862883    19.328916    33.273693   -23.008477    12.612127     22.30075    14.235163 
  160600    2.4221802    144720.61            0    144730.04    12.680417     22.41008    13.863735    19.444064    33.238356   -22.923316    12.612127     22.30075    14.235163 
  160800    2.6149867    144889.78            0    144899.96    12.681483    22.409706    13.864106    19.550699    33.200915   -22.886188    12.612127     22.30075    14.235163 
  161000    2.8394829    145058.15            0    145069.21    12.682708    22.409766    13.863993    19.673253    33.206976   -22.897513    12.612127     22.30075    14.235163 
  161200    1.7625845    145228.01            0    145234.88    12.684088    22.409964    13.863718     19.81125     33.22677   -22.924993    12.612127     22.30075    14.235163 
  161400    1.8263975    145396.61            0    145403.72    12.684542    22.410512    13.863495     19.85673    33.281609   -22.947304    12.612127     22.30075    14.235163 
  161600    2.9604523     145565.7            0    145577.22    12.684712    22.411297    13.863244    19.873706    33.360135   -22.972437    12.612127     22.30075    14.235163 
  161800    3.1134884     145735.9            0    145748.03    12.684621    22.411837    13.863071    19.864623    33.414129   -22.989697    12.612127     22.30075    14.235163 
  162000    2.1129087    145904.33            0    145912.56     12.68385    22.412403    13.862989    19.787507    33.470698   -22.997927    12.612127     22.30075    14.235163 
  162200    1.4823604    146072.99            0    146078.76    12.682926     22.41378    13.862835     19.69506    33.608514   -23.013339    12.612127     22.30075    14.235163 
  162400    1.7205431    146242.31            0       146249    12.681691    22.414684    13.862788    19.571466    33.698973    -23.01803    12.612127     22.30075    14.235163 
  162600    2.4367851    146411.35            0    146420.83    12.679986    22.415351    13.862857    19.400926    33.765663   -23.011157    12.612127     22.30075    14.235163 
  162800    2.8620601    146581.11            0    146592.25    12.678622    22.415793    13.862807    19.264407    33.809876   -23.016172    12.612127     22.30075    14.235163 
  163000    2.5494346    146749.61            0    146759.53     12.67784    22.415518    13.862585    19.186225     33.78241   -23.038333    12.612127     22.30075    14.235163 
  163200    1.5651561     146919.1            0    146925.19    12.677528    22.414852    13.862444    19.155027    33.715761   -23.052453    12.612127     22.30075    14.235163 
  163400    1.5825289    147088.59            0    147094.75    12.677882    22.414516    13.862597    19.190429    33.682111   -23.037129    12.612127     22.30075    14.235163 
  163600    3.3197912    147257.83            0    147270.75    12.677882    22.414223    13.862981    19.190462    33.652785   -22.998728    12.612127     22.30075    14.235163 
  163800    2.9948733    147426.06            0    147437.72    12.678666    22.413552    13.863149    19.268867    33.585679   -22.981892    12.612127     22.30075    14.235163 
  164000    1.9892797    147594.96            0    147602.71    12.679694    22.412564    13.863196    19.371735    33.486814   -22.977236    12.612127     22.30075    14.235163 
  164200     1.924765    147764.13            0    147771.63    12.680777    22.411554     13.86319    19.480074    33.385776   -22.977855    12.612127     22.30075    14.235163 
  164400    2.7316951    147934.04            0    147944.68    12.682269    22.410385    13.863155    19.629339    33.268817   -22.981267    12.612127     22.30075    14.235163 
  164600    3.7780747    148103.79            0    148118.49    12.683919    22.409877    13.863251    19.794368    33.218052   -22.971696    12.612127     22.30075    14.235163 
  164800    1.8127858    148273.26            0    148280.31    12.685153    22.409988    13.863363    19.917791    33.229106   -22.960473    12.612127     22.30075    14.235163 
  165000    1.6768923       148442            0    148448.53    12.686771    22.409633     13.86373    20.079725    33.193598    -22.92374    12.612127     22.30075    14.235163 
  165200    2.2920793    148611.85            0    148620.77    12.688539    22.409094    13.864288    20.256589    33.139726   -22.868007    12.612127     22.30075    14.235163 
  165400    3.1945476    148780.68            0    148793.12    12.690873    22.408134    13.865385    20.490068     33.04363   -22.758251    12.612127     22.30075    14.235163 
  165600    2.4135822    148949.62            0    148959.02    12.692046    22.407298    13.867159    20.607376    32.959998   -22.580778    12.612127     22.30075    14.235163 
  165800    1.8963581    149117.38            0    149124.77    12.692106    22.406882    13.868873    20.613382    32.918432     -22.4093    12.612127     22.30075    14.235163 
  166000    1.7629832    149287.31            0    149294.17    12.691762    22.406952    13.870329    20.579029    32.925425   -22.263649    12.612127     22.30075    14.235163 
  166200     3.079644     149456.2            0    149468.19    12.690715    22.407753    13.871572    20.474298    33.005529   -22.139243    12.612127     22.30075    14.235163 
  166400    3.1184316    149625.52            0    149637.66    12.688795    22.408891    13.872794    20.282204    33.119403   -22.017022    12.612127     22.30075    14.235163 
  166600    2.4457575    149794.24            0    149803.77    12.686086    22.409649    13.873679    20.011138    33.195241   -21.928488    12.612127     22.30075    14.235163 
  166800    1.9641023    149962.88            0    149970.53    12.682955    22.410305    13.874248    19.697959    33.260814   -21.871536    12.612127     22.30075    14.235163 
  167000    1.9254308    150132.54            0    150140.03    12.680238    22.410833    13.874901    19.426089     33.31372   -21.806262    12.612127     22.30075    14.235163 
  167200    3.0558501    150302.37            0    150314.26    12.678119    22.411206     13.87599    19.214169    33.350968   -21.697265    12.612127     22.30075    14.235163 
  167400    2.5980301    150473.59            0    150483.71    12.676895    22.412153    13.877486    19.091724    33.445691   -21.547585    12.612127     22.30075    14.235163 
  167600    2.1952872    150641.17            0    150649.72     12.67676    22.413492    13.878784    19.078136    33.579702   -21.417736    12.612127     22.30075    14.235163 
  167800    1.5226789    150808.85            0    150814.78    12.676938    22.413877    13.880235    19.095978    33.618157   -21.272583    12.612127     22.30075    14.235163 
  168000   0.92328389    150977.66            0    150981.26    12.677225    22.414103    13.881478    19.124691    33.640778   -21.148282    12.612127     22.30075    14.235163 
  168200    1.4548659    151146.82            0    151152.48    12.677541    22.414351    13.882758    19.156304    33.665614   -21.020162    12.612127     22.30075    14.235163 
  168400    2.2851579    151316.01            0     151324.9    12.678023    22.414735    13.884371      19.2045    33.704083   -20.858823    12.612127     22.30075    14.235163 
  168600    2.6834413    151486.21            0    151496.66    12.678969    22.415118    13.886244    19.299166    33.742369   -20.671486    12.612127     22.30075    14.235163 
  168800    2.8579129    151654.52            0    151665.64    12.680956    22.414999    13.888372    19.497976    33.730475    -20.45857    12.612127     22.30075    14.235163 
  169000    1.5422294    151824.66            0    151830.66     12.68306    22.414519    13.890207    19.708452    33.682395   -20.274931    12.612127     22.30075    14.235163 
  169200    1.7343046    151992.85            0     151999.6     12.68444    22.414802    13.891214    19.846465    33.710741   -20.174226    12.612127     22.30075    14.235163 
  169400    3.4480127    152162.28            0    152175.71    12.685478    22.415537    13.892202    19.950301    33.784238     -20.0754    12.612127     22.30075    14.235163 
  169600      3.14218     152331.2            0    152343.43    12.686603    22.416018    13.893226    20.062858    33.832365   -19.972904    12.612127     22.30075    14.235163 
  169800    1.9983431    152501.37            0    152509.15    12.687863    22.416067    13.894109    20.188953    33.837283   -19.884652    12.612127     22.30075    14.235163 
  170000    2.2604805    152669.62            0    152678.42    12.689303    22.416417    13.895117    20.333031    33.872267   -19.783749    12.612127     22.30075    14.235163 
  170200    2.9581433    152839.37            0    152850.88    12.689582    22.416596    13.896028    20.360949    33.890212   -19.692636    12.612127     22.30075    14.235163 
  170400    4.0365391    153008.62            0    153024.33    12.688604    22.416146    13.896748    20.263096    33.845155   -19.620556    12.612127     22.30075    14.235163 
  170600    1.7370671    153178.21            0    153184.97    12.687829    22.415307    13.897221    20.185489    33.761242   -19.573238    12.612127     22.30075    14.235163 
  170800    1.8263819    153346.95            0    153354.06    12.687709    22.414646    13.897554    20.173556    33.695115   -19.539954    12.612127     22.30075    14.235163 
  171000    2.8332636    153515.27            0     153526.3    12.687604    22.415028    13.897804    20.163024    33.733326   -19.514998    12.612127     22.30075    14.235163 
  171200     2.866674    153684.91            0    153696.07    12.686723    22.415256    13.897967    20.074864    33.756212   -19.498613    12.612127     22.30075    14.235163 
  171400    1.7045911    153853.93            0    153860.57    12.684727    22.415025    13.897821    19.875195    33.733016   -19.513284    12.612127     22.30075    14.235163 
  171600    1.4979787    154022.45            0    154028.28    12.683952    22.414455    13.897815    19.797637    33.676076   -19.513824    12.612127     22.30075    14.235163 
  171800    2.4786589    154191.34            0    154200.99    12.683679    22.413707      13.8979    19.770315    33.601159   -19.505347    12.612127     22.30075    14.235163 
  172000    2.4419611    154362.62            0    154372.12    12.683554    22.412262    13.898034    19.757835    33.456673   -19.491961    12.612127     22.30075    14.235163 
  172200    2.6683594    154530.45            0    154540.84    12.683866    22.409023    13.898466    19.789113    33.132592   -19.448741    12.612127     22.30075    14.235163 
  172400    2.0498821    154700.03            0    154708.01    12.684638     22.40638    13.898945     19.86627    32.868146   -19.400835    12.612127     22.30075    14.235163 
  172600    2.0440331    154868.06            0    154876.02    12.685838    22.405029    13.899019    19.986314    32.733005   -19.393419    12.612127     22.30075    14.235163 
  172800    2.3101532    155037.13            0    155046.12    12.687188    22.403938    13.898927    20.121399    32.623927   -19.402621    12.612127     22.30075    14.235163 
  173000    3.3893218     155206.2            0     155219.4    12.688457    22.402624    13.898711    20.248386    32