LAMMPS (30 Jul 2016)

# ----------------- Init Section -----------------

units real
processors 1 1 1
newton off
atom_style full
atom_modify sort 0 10.0

# ----------------- Atom Definition Section -----------------

read_data "MgMOF74-Pressure50000.data"
  orthogonal box = (0.4447 0.31425 -0.401771) to (26.5587 45.5442 27.2652)
  1 by 1 by 1 MPI processor grid
  reading atoms ...
  1307 atoms
  0 = max # of 1-2 neighbors
  0 = max # of 1-3 neighbors
  0 = max # of 1-4 neighbors
  1 = max # of special neighbors

# ----------------- Settings Section -----------------

#include "MgMOF74-Pressure50000.in.settings"

# ----------------- Run Section -----------------

# define groups
group GUEST type 1
11 atoms in group GUEST
group MOF type 2 3 4 5 6 7 8 9 10
1296 atoms in group MOF

# define computes
compute comT all com
compute comG GUEST com
compute comM MOF com

# settings
timestep           0.5
thermo             200
thermo_style       custom step temp epair emol etotal c_comT[1] c_comT[2] c_comT[3] c_comG[1] c_comG[2] c_comG[3] c_comM[1] c_comM[2] c_comM[3]
restart            2000000 sim.restart

# reset box to start at 0
change_box         all x delta $(-xlo) $(-xlo) y delta $(-ylo) $(-ylo) z delta $(-zlo) $(-zlo) remap units box
change_box         all x delta -0.44469999999999998419 $(-xlo) y delta $(-ylo) $(-ylo) z delta $(-zlo) $(-zlo) remap units box
change_box         all x delta -0.44469999999999998419 -0.44469999999999998419 y delta $(-ylo) $(-ylo) z delta $(-zlo) $(-zlo) remap units box
change_box         all x delta -0.44469999999999998419 -0.44469999999999998419 y delta -0.3142499999999999738 $(-ylo) z delta $(-zlo) $(-zlo) remap units box
change_box         all x delta -0.44469999999999998419 -0.44469999999999998419 y delta -0.3142499999999999738 -0.3142499999999999738 z delta $(-zlo) $(-zlo) remap units box
change_box         all x delta -0.44469999999999998419 -0.44469999999999998419 y delta -0.3142499999999999738 -0.3142499999999999738 z delta 0.40177099999999998925 $(-zlo) remap units box
change_box         all x delta -0.44469999999999998419 -0.44469999999999998419 y delta -0.3142499999999999738 -0.3142499999999999738 z delta 0.40177099999999998925 0.40177099999999998925 remap units box
  orthogonal box = (0 0.31425 -0.401771) to (26.114 45.5442 27.2652)
  orthogonal box = (0 0 -0.401771) to (26.114 45.23 27.2652)
  orthogonal box = (0 0 0) to (26.114 45.23 27.667)
write_data         data_changebox.data

# get rid of overlapping atoms
run                0
WARNING: No fixes defined, atoms won't move (../verlet.cpp:55)
Memory usage per processor = 0.478851 Mbytes
Step Temp E_pair E_mol TotEng comT[1] comT[2] comT[3] comG[1] comG[2] comG[3] comM[1] comM[2] comM[3] 
       0            0            0            0            0    12.683318    22.424053    14.189073    19.734246    34.636249    9.6241346    12.612127     22.30075    14.235163 
Loop time of 9.53674e-07 on 1 procs for 0 steps with 1307 atoms

0.0% CPU use with 1 MPI tasks x no OpenMP threads

MPI task timing breakdown:
Section |  min time  |  avg time  |  max time  |%varavg| %total
---------------------------------------------------------------
Pair    | 0          | 0          | 0          |   0.0 |  0.00
Bond    | 0          | 0          | 0          |   0.0 |  0.00
Neigh   | 0          | 0          | 0          |   0.0 |  0.00
Comm    | 0          | 0          | 0          |   0.0 |  0.00
Output  | 0          | 0          | 0          |   0.0 |  0.00
Modify  | 0          | 0          | 0          |   0.0 |  0.00
Other   |            | 9.537e-07  |            |       |100.00

Nlocal:    1307 ave 1307 max 1307 min
Histogram: 1 0 0 0 0 0 0 0 0 0
Nghost:    0 ave 0 max 0 min
Histogram: 1 0 0 0 0 0 0 0 0 0
Neighs:    0 ave 0 max 0 min
Histogram: 1 0 0 0 0 0 0 0 0 0

Total # of neighbors = 0
Ave neighs/atom = 0
Ave special neighs/atom = 0
Neighbor list builds = 0
Dangerous builds = 0
velocity           GUEST create 313 1738
fix                1 GUEST nvt temp 313 313 100.0
pair_style         soft 5.0
pair_coeff         * * 0.0 5.0
kspace_style       none
variable           prefactor equal ramp(1.0,20.0)
fix                2 all adapt 1 pair soft a * * v_prefactor
run                2000
Neighbor list info ...
  1 neighbor list requests
  update every 1 steps, delay 10 steps, check yes
  max neighbors/atom: 2000, page size: 100000
  master list distance cutoff = 7
  ghost atom cutoff = 7
  binsize = 3.5 -> bins = 8 13 8
Memory usage per processor = 5.44173 Mbytes
Step Temp E_pair E_mol TotEng comT[1] comT[2] comT[3] comG[1] comG[2] comG[3] comM[1] comM[2] comM[3] 
       0    2.3966309    8995.3087            0    9004.6386    12.683318    22.424053    14.189073    19.734246    34.636249    9.6241346    12.612127     22.30075    14.235163 
     200    4.5023721    26074.309            0    26091.836    12.683332     22.42382    14.189083    19.735612    34.612932    9.6251655    12.612127     22.30075    14.235163 
     400    21.062518    42979.691            0    43061.686    12.683493    22.421737    14.188964    19.751736    34.404557    9.6133009    12.612127     22.30075    14.235163 
     600    17.760017    59769.623            0    59838.762    12.683645    22.419594    14.188718     19.76697    34.190192    9.5886352    12.612127     22.30075    14.235163 
     800    5.4882568    76557.718            0    76579.083     12.68363      22.4156    14.188317    19.765425    33.790547    9.5485559    12.612127     22.30075    14.235163 
    1000   0.94478664    93470.842            0     93474.52    12.683665      22.4137    14.188006    19.768993    33.600542    9.5174109    12.612127     22.30075    14.235163 
    1200   0.70808681    110384.61            0    110387.37    12.683686    22.412593    14.187824      19.7711    33.489783    9.4992001    12.612127     22.30075    14.235163 
    1400    1.8727031    127298.38            0    127305.67    12.683712    22.411236    14.187601    19.773682    33.354039    9.4768812    12.612127     22.30075    14.235163 
    1600    3.6324607    144216.31            0    144230.45     12.68376    22.408922      14.1872    19.778468    33.122517    9.4367989    12.612127     22.30075    14.235163 
    1800    4.4255859       161126            0    161143.23    12.683951    22.409155    14.186058    19.797544    33.145804    9.3225315    12.612127     22.30075    14.235163 
    2000    1.6587189    178042.66            0    178049.12    12.684152    22.411047     14.18485    19.817661    33.335061     9.201683    12.612127     22.30075    14.235163 
Loop time of 2.73583 on 1 procs for 2000 steps with 1307 atoms

Performance: 31.581 ns/day, 0.760 hours/ns, 731.040 timesteps/s
99.9% CPU use with 1 MPI tasks x no OpenMP threads

MPI task timing breakdown:
Section |  min time  |  avg time  |  max time  |%varavg| %total
---------------------------------------------------------------
Pair    | 2.6456     | 2.6456     | 2.6456     |   0.0 | 96.70
Bond    | 0.00011349 | 0.00011349 | 0.00011349 |   0.0 |  0.00
Neigh   | 0.057452   | 0.057452   | 0.057452   |   0.0 |  2.10
Comm    | 0.011362   | 0.011362   | 0.011362   |   0.0 |  0.42
Output  | 0.00046587 | 0.00046587 | 0.00046587 |   0.0 |  0.02
Modify  | 0.013772   | 0.013772   | 0.013772   |   0.0 |  0.50
Other   |            | 0.007098   |            |       |  0.26

Nlocal:    1307 ave 1307 max 1307 min
Histogram: 1 0 0 0 0 0 0 0 0 0
Nghost:    2723 ave 2723 max 2723 min
Histogram: 1 0 0 0 0 0 0 0 0 0
Neighs:    53112 ave 53112 max 53112 min
Histogram: 1 0 0 0 0 0 0 0 0 0

Total # of neighbors = 53112
Ave neighs/atom = 40.6366
Ave special neighs/atom = 0
Neighbor list builds = 20
Dangerous builds = 0
unfix              2
write_data         data_overlap.data

# reset force field parameters
# Set 1-2, 1-3, and 1-4 pairwise interactions to zero; not needed if no bonded terms
#special_bonds      lj/coul 0.0 0.0 0.0
kspace_style       pppm/disp 1.0e-6
include "MgMOF74-Pressure50000.in.settings"
# UFF parameters for all atoms not defined by force field
pair_style         hybrid lj/long/coul/long cut long 12.8 buck/long/coul/long cut long 12.8
pair_modify        mix arithmetic shift yes
pair_coeff         7 7 lj/long/coul/long 0.111 2.691
pair_coeff         2 2 lj/long/coul/long 0.105 3.431
pair_coeff         3 3 lj/long/coul/long 0.105 3.431
pair_coeff         4 4 lj/long/coul/long 0.105 3.431
pair_coeff         5 5 lj/long/coul/long 0.105 3.431
pair_coeff         6 6 lj/long/coul/long 0.044 2.571
pair_coeff         8 8 lj/long/coul/long 0.060 3.118
pair_coeff         9 9 lj/long/coul/long 0.060 3.118
pair_coeff         10 10 lj/long/coul/long 0.060 3.118
pair_coeff         1 1 lj/long/coul/long 0.294 3.730
# Lennard-Jones parameters from force field
pair_coeff         1 6 lj/long/coul/long 0.114 3.15
# Buckingham parameters from force field
pair_coeff         1 7 buck/long/coul/long 503735.46 4.915 869.75957
pair_coeff         1 8 buck/long/coul/long 36618.413 2.965 943.43844
pair_coeff         1 9 buck/long/coul/long 40336.705 3.265 943.43844
pair_coeff         1 10 buck/long/coul/long 20010.424 2.790 943.43844
pair_coeff         1 2 buck/long/coul/long 151480.54 3.995 1627.7890
pair_coeff         1 3 buck/long/coul/long 70571.228 3.280 1627.7890
pair_coeff         1 4 buck/long/coul/long 460219.42 4.370 1627.7890
pair_coeff         1 5 buck/long/coul/long 5085.8640 2.315 1627.7890

# melt crystalline guest molecules
unfix              1
run                0
WARNING: No fixes defined, atoms won't move (../verlet.cpp:55)
PPPMDisp initialization ...
  Coulomb G vector (1/distance) = 0.264777
  Coulomb grid = 30 50 30
  Coulomb stencil order = 5
  Coulomb estimated absolute RMS force accuracy = 0.000346238
  Coulomb estimated relative force accuracy = 1.04269e-06
  using double precision FFTs
  3d grid and FFT values/proc = 78033 45000
Neighbor list info ...
  3 neighbor list requests
  update every 1 steps, delay 10 steps, check yes
  max neighbors/atom: 2000, page size: 100000
  master list distance cutoff = 14.8
  ghost atom cutoff = 14.8
  binsize = 7.4 -> bins = 4 7 4
Memory usage per processor = 12.3721 Mbytes
Step Temp E_pair E_mol TotEng comT[1] comT[2] comT[3] comG[1] comG[2] comG[3] comM[1] comM[2] comM[3] 
    2000    1.6587189     60258162            0     60258168    12.684152    22.411047     14.18485    19.817661    33.335061     9.201683    12.612127     22.30075    14.235163 
Loop time of 9.53674e-07 on 1 procs for 0 steps with 1307 atoms

0.0% CPU use with 1 MPI tasks x no OpenMP threads

MPI task timing breakdown:
Section |  min time  |  avg time  |  max time  |%varavg| %total
---------------------------------------------------------------
Pair    | 0          | 0          | 0          |   0.0 |  0.00
Bond    | 0          | 0          | 0          |   0.0 |  0.00
Kspace  | 0          | 0          | 0          |   0.0 |  0.00
Neigh   | 0          | 0          | 0          |   0.0 |  0.00
Comm    | 0          | 0          | 0          |   0.0 |  0.00
Output  | 0          | 0          | 0          |   0.0 |  0.00
Modify  | 0          | 0          | 0          |   0.0 |  0.00
Other   |            | 9.537e-07  |            |       |100.00

Nlocal:    1307 ave 1307 max 1307 min
Histogram: 1 0 0 0 0 0 0 0 0 0
Nghost:    7927 ave 7927 max 7927 min
Histogram: 1 0 0 0 0 0 0 0 0 0
Neighs:    491314 ave 491314 max 491314 min
Histogram: 1 0 0 0 0 0 0 0 0 0

Total # of neighbors = 491314
Ave neighs/atom = 375.91
Ave special neighs/atom = 0
Neighbor list builds = 0
Dangerous builds = 0
velocity           GUEST create 1000 1738
fix                3 GUEST nvt temp 1000 1000 100.0
run                40000
PPPMDisp initialization ...
  Coulomb G vector (1/distance) = 0.264777
  Coulomb grid = 30 50 30
  Coulomb stencil order = 5
  Coulomb estimated absolute RMS force accuracy = 0.000346238
  Coulomb estimated relative force accuracy = 1.04269e-06
  using double precision FFTs
  3d grid and FFT values/proc = 78033 45000
Memory usage per processor = 12.3721 Mbytes
Step Temp E_pair E_mol TotEng comT[1] comT[2] comT[3] comG[1] comG[2] comG[3] comM[1] comM[2] comM[3] 
    2000    7.6569678     60258162            0     60258191    12.684152    22.411047     14.18485    19.817661    33.335061     9.201683    12.612127     22.30075    14.235163 
    2200    848.53379     59214350            0     59217653    12.683354    22.410345    14.187834    19.737804    33.264808    9.5002053    12.612127     22.30075    14.235163 
    2400    727.72579     59214550            0     59217383    12.683362    22.410442    14.188424    19.738609    33.274539    9.5592467    12.612127     22.30075    14.235163 
    2600     744.0771     59212328            0     59215224    12.683316     22.41032    14.188111    19.734089    33.262389    9.5279621    12.612127     22.30075    14.235163 
    2800    820.71968     59212325            0     59215520    12.683407    22.410453      14.1884    19.743131    33.275701    9.5568251    12.612127     22.30075    14.235163 
    3000    793.49068     59213376            0     59216465    12.683361    22.410429    14.188313    19.738554    33.273214    9.5481636    12.612127     22.30075    14.235163 
    3200    278.85403     59214483            0     59215569    12.683142    22.410261    14.187712    19.716689    33.256423    9.4880042    12.612127     22.30075    14.235163 
    3400    797.63292     59212877            0     59215982    12.683334    22.410425    14.187473    19.735831    33.272816    9.4640952    12.612127     22.30075    14.235163 
    3600    642.36611     59213629            0     59216130     12.68325    22.410273    14.188271    19.727487    33.257652    9.5439146    12.612127     22.30075    14.235163 
    3800    686.92689     59214012            0     59216686    12.683605    22.410421    14.187673    19.762935    33.272497     9.484088    12.612127     22.30075    14.235163 
    4000    533.51746     59213332            0     59215409     12.68348    22.410282    14.187968    19.750502    33.258526    9.5135901    12.612127     22.30075    14.235163 
    4200    416.67557     59214762            0     59216384    12.683296    22.410281    14.187683    19.732003    33.258438    9.4851503    12.612127     22.30075    14.235163 
    4400    617.10684     59214042            0     59216444    12.683345    22.410409    14.187373    19.736938    33.271294    9.4541181    12.612127     22.30075    14.235163 
    4600    847.48372     59214462            0     59217761    12.683331    22.410391    14.188125    19.735595    33.269493    9.5293684    12.612127     22.30075    14.235163 
    4800    835.01566     59214406            0     59217657    12.683278    22.410156    14.187825    19.730228     33.24592     9.499316    12.612127     22.30075    14.235163 
    5000    494.36286     59213087            0     59215011    12.683473    22.410373    14.188264    19.749757     33.26767    9.5432249    12.612127     22.30075    14.235163 
    5200    903.52614     59213278            0     59216795    12.683308    22.410197    14.188043    19.733259     33.25008     9.521183    12.612127     22.30075    14.235163 
    5400    469.56834     59213093            0     59214921    12.683443    22.410349    14.188325    19.746778    33.265277    9.5493419    12.612127     22.30075    14.235163 
    5600    412.58709     59213864            0     59215470    12.683389    22.410386    14.188185     19.74133    33.268967    9.5353877    12.612127     22.30075    14.235163 
    5800    331.90716     59216392            0     59217684    12.683473    22.410493    14.188359    19.749802    33.279662    9.5527148    12.612127     22.30075    14.235163 
    6000    579.49725     59214075            0     59216331    12.683309    22.410306     14.18782    19.733329    33.260963    9.4988188    12.612127     22.30075    14.235163 
    6200    796.23411     59213137            0     59216237    12.683442    22.410324    14.188316    19.746648    33.262708    9.5484954    12.612127     22.30075    14.235163 
    6400    755.88726     59211249            0     59214191    12.683425    22.410336    14.188227     19.74496    33.263915    9.5395365    12.612127     22.30075    14.235163 
    6600    674.57009     59213504            0     59216130    12.683234    22.410471    14.188003    19.725883    33.277458    9.5171133    12.612127     22.30075    14.235163 
    6800    611.01498     59216004            0     59218382    12.683265      22.4102     14.18802    19.728972    33.250349    9.5188682    12.612127     22.30075    14.235163 
    7000    581.25281     59213067            0     59215330    12.683389     22.41026    14.188136    19.741388    33.256357    9.5304675    12.612127     22.30075    14.235163 
    7200    563.65158     59211991            0     59214185    12.683435    22.410504    14.188245    19.745958    33.280813    9.5413525    12.612127     22.30075    14.235163 
    7400    609.51088     59213223            0     59215596    12.683227     22.41029    14.188488    19.725149    33.259358    9.5656993    12.612127     22.30075    14.235163 
    7600    576.54439     59213353            0     59215597    12.683401    22.410346    14.187889    19.742522    33.264962    9.5057651    12.612127     22.30075    14.235163 
    7800    608.74484     59213706            0     59216076    12.683492    22.410337    14.187595    19.751623    33.264042    9.4763122    12.612127     22.30075    14.235163 
    8000    615.78903     59212602            0     59214999    12.683412    22.410273    14.187771    19.743632     33.25767     9.493915    12.612127     22.30075    14.235163 
    8200    294.12916     59212687            0     59213832    12.683206    22.410362    14.187898    19.723036     33.26659    9.5065908    12.612127     22.30075    14.235163 
    8400     439.0937     59214699            0     59216408     12.68319    22.410311    14.187932    19.721476    33.261466    9.5100098    12.612127     22.30075    14.235163 
    8600    617.99819     59214932            0     59217338     12.68333    22.410338    14.188186    19.735477    33.264168    9.5354373    12.612127     22.30075    14.235163 
    8800    763.90933     59213366            0     59216340    12.683434    22.410363    14.187508    19.745841    33.266623    9.4676422    12.612127     22.30075    14.235163 
    9000     485.3019     59212967            0     59214856    12.683313    22.410429    14.187916    19.733786    33.273297    9.5084355    12.612127     22.30075    14.235163 
    9200     481.4624     59215083            0     59216957    12.683484    22.410394    14.188004    19.750813    33.269728    9.5172254    12.612127     22.30075    14.235163 
    9400    712.04792     59213355            0     59216127    12.683321     22.41046    14.187988    19.734563    33.276329    9.5156418    12.612127     22.30075    14.235163 
    9600    354.59046     59214145            0     59215525     12.68321     22.41038     14.18791    19.723468    33.268382    9.5078846    12.612127     22.30075    14.235163 
    9800    275.28271     59215001            0     59216073     12.68341     22.41033    14.188528     19.74346    33.263363    9.5696303    12.612127     22.30075    14.235163 
   10000    397.66957     59213014            0     59214562     12.68324    22.410384     14.18745    19.726478     33.26873    9.4618376    12.612127     22.30075    14.235163 
   10200    499.12533     59214577            0     59216520     12.68329    22.410397    14.187754    19.731476    33.270046    9.4922528    12.612127     22.30075    14.235163 
   10400    553.70334     59213366            0     59215521    12.683523    22.410377    14.188119    19.754802    33.268092    9.5287147    12.612127     22.30075    14.235163 
   10600    531.33848     59213837            0     59215906    12.683279    22.410456    14.188256    19.730307    33.276007    9.5424752    12.612127     22.30075    14.235163 
   10800    523.67225     59213105            0     59215144    12.683317    22.410266    14.187768     19.73413    33.256994    9.4936118    12.612127     22.30075    14.235163 
   11000    758.35004     59213506            0     59216458    12.683219    22.410247    14.188243    19.724361    33.255091    9.5411266    12.612127     22.30075    14.235163 
   11200    502.79988     59213387            0     59215344    12.683299    22.410504    14.188056    19.732298     33.28075    9.5224196    12.612127     22.30075    14.235163 
   11400     436.5832     59212341            0     59214041    12.683417    22.410284    14.188215    19.744105    33.258758    9.5383621    12.612127     22.30075    14.235163 
   11600    403.20453     59215543            0     59217113    12.683266    22.410456    14.188088    19.729028    33.275979     9.525675    12.612127     22.30075    14.235163 
   11800    333.27836     59213129            0     59214426     12.68326    22.410396    14.188719    19.728458    33.269964    9.5887973    12.612127     22.30075    14.235163 
   12000    699.76388     59211667            0     59214391    12.683357    22.410412    14.188046    19.738115    33.271521     9.521481    12.612127     22.30075    14.235163 
   12200     283.1508     59214318            0     59215420    12.683156    22.410403    14.188197       19.718    33.270643     9.536514    12.612127     22.30075    14.235163 
   12400    435.15868     59213754            0     59215448    12.683386    22.410293    14.188244    19.741064     33.25965    9.5412858    12.612127     22.30075    14.235163 
   12600    583.61174     59214253            0     59216525     12.68329    22.410349    14.187805    19.731412    33.265222    9.4973044    12.612127     22.30075    14.235163 
   12800    620.59239     59212150            0     59214566    12.683298    22.410433    14.188183    19.732244    33.273671    9.5351727    12.612127     22.30075    14.235163 
   13000    584.65044     59212825            0     59215101    12.683405    22.410462    14.188112    19.742928    33.276564    9.5280665    12.612127     22.30075    14.235163 
   13200    681.61529     59213097            0     59215751    12.683157    22.410336    14.187862     19.71818    33.263924     9.503038    12.612127     22.30075    14.235163 
   13400    579.08493     59215270            0     59217524    12.683268    22.410366    14.187953    19.729277    33.266958    9.5121289    12.612127     22.30075    14.235163 
   13600    494.17858     59213225            0     59215148    12.683379    22.410573    14.187949    19.740375    33.287711    9.5117344    12.612127     22.30075    14.235163 
   13800    572.73371     59214323            0     59216552    12.683269    22.410366    14.187731    19.729352    33.266915    9.4899465    12.612127     22.30075    14.235163 
   14000    255.57211     59214842            0     59215837    12.683386    22.410333    14.188458    19.741056    33.263631    9.5626942    12.612127     22.30075    14.235163 
   14200    539.51328     59213922            0     59216022    12.683256    22.410485     14.18785    19.728014    33.278904    9.5017891    12.612127     22.30075    14.235163 
   14400     327.8584     59213813            0     59215089    12.683276    22.410543     14.18866    19.730005    33.284656    9.5829128    12.612127     22.30075    14.235163 
   14600    451.67584     59214713            0     59216472    12.683267    22.410368    14.187968     19.72912    33.267198    9.5136867    12.612127     22.30075    14.235163 
   14800    733.71221     59213193            0     59216049    12.683212    22.410491    14.187879     19.72369     33.27944    9.5047346    12.612127     22.30075    14.235163 
   15000    442.42106     59212198            0     59213920    12.683285    22.410503    14.188161     19.73096    33.280634    9.5329733    12.612127     22.30075    14.235163 
   15200    432.51121     59212570            0     59214254    12.683343    22.410347    14.188557    19.736709    33.265017    9.5725928    12.612127     22.30075    14.235163 
   15400    601.63373     59212161            0     59214503    12.683283     22.41041    14.188383    19.730782     33.27134     9.555128    12.612127     22.30075    14.235163 
   15600     377.1809     59212994            0     59214462    12.683265    22.410319    14.187875    19.728897    33.262264    9.5043506    12.612127     22.30075    14.235163 
   15800    351.28014     59212456            0     59213824    12.683364     22.41031     14.18848    19.738866    33.261363    9.5648498    12.612127     22.30075    14.235163 
   16000    364.58181     59212269            0     59213688    12.683427    22.410517    14.188271    19.745144    33.282066    9.5439117    12.612127     22.30075    14.235163 
   16200    679.15174     59212536            0     59215180    12.683152    22.410325    14.188405    19.717676    33.262897    9.5573483    12.612127     22.30075    14.235163 
   16400    399.45965     59213764            0     59215319     12.68344     22.41034     14.18858    19.746452    33.264379    9.5748709    12.612127     22.30075    14.235163 
   16600    219.92134     59213101            0     59213957    12.683365    22.410418    14.187974    19.738916    33.272115    9.5141936    12.612127     22.30075    14.235163 
   16800    567.22478     59212729            0     59214937    12.683304    22.410246    14.187676    19.732873    33.254936    9.4843845    12.612127     22.30075    14.235163 
   17000    676.76775     59212004            0     59214638    12.683214    22.410195    14.188071    19.723816    33.249896    9.5238951    12.612127     22.30075    14.235163 
   17200    433.16084     59214362            0     59216048    12.683248    22.410388     14.18754    19.727249    33.269115    9.4708142    12.612127     22.30075    14.235163 
   17400    725.26478     59213302            0     59216125    12.683347    22.410387     14.18824    19.737141    33.269048     9.540806    12.612127     22.30075    14.235163 
   17600    593.98133     59213664            0     59215976    12.683468    22.410454    14.187795    19.749217    33.275803    9.4962857    12.612127     22.30075    14.235163 
   17800    400.35516     59212799            0     59214358     12.68331    22.410206    14.188581    19.733426    33.250977    9.5749151    12.612127     22.30075    14.235163 
   18000    401.40503     59212306            0     59213869    12.683259    22.410359    14.188147    19.728392    33.266307    9.5315251    12.612127     22.30075    14.235163 
   18200    387.84466     59213150            0     59214660    12.683304    22.410312    14.187706    19.732872    33.261563    9.4873765    12.612127     22.30075    14.235163 
   18400    244.92704     59212957            0     59213910    12.683406     22.41044    14.187972    19.743011    33.274394    9.5140402    12.612127     22.30075    14.235163 
   18600     265.3551     59211559            0     59212592    12.683391     22.41031     14.18813    19.741511    33.261402    9.5298794    12.612127     22.30075    14.235163 
   18800    477.40075     59211961            0     59213819    12.683447    22.410487    14.187996    19.747185    33.279046    9.5164406    12.612127     22.30075    14.235163 
   19000    718.93723     59212598            0     59215397    12.683369    22.410326    14.188168    19.739323    33.262989    9.5335964    12.612127     22.30075    14.235163 
   19200    350.45797     59215158            0     59216522    12.683382    22.410396    14.187471     19.74069    33.269991    9.4638691    12.612127     22.30075    14.235163 
   19400    236.55207     59212869            0     59213790    12.683322    22.410352    14.188008    19.734606    33.265574     9.517688    12.612127     22.30075    14.235163 
   19600      559.583     59212148            0     59214326    12.683307    22.410378     14.18829     19.73313    33.268187     9.545826    12.612127     22.30075    14.235163 
   19800    255.35046     59214291            0     59215285    12.683247    22.410433     14.18752    19.727193    33.273672    9.4688021    12.612127     22.30075    14.235163 
   20000    519.90627     59214681            0     59216705    12.683351    22.410254    14.188028    19.737511    33.255745    9.5196588    12.612127     22.30075    14.235163 
   20200    372.94085     59212061            0     59213513    12.683245    22.410332    14.187956    19.726905    33.263511    9.5124625    12.612127     22.30075    14.235163 
   20400    451.50499     59213729            0     59215486     12.68319    22.410365    14.187803    19.721396    33.266841     9.497113    12.612127     22.30075    14.235163 
   20600    471.62879     59213401            0     59215237    12.683236    22.410315    14.187623    19.726013    33.261905     9.479169    12.612127     22.30075    14.235163 
   20800    501.84146     59212936            0     59214889    12.683527    22.410283    14.188157    19.755146    33.258666    9.5325704    12.612127     22.30075    14.235163 
   21000    489.17444     59211680            0     59213585    12.683294    22.410346     14.18797    19.731826    33.264996    9.5138121    12.612127     22.30075    14.235163 
   21200    573.39183     59213540            0     59215772    12.683272    22.410437     14.18767    19.729647    33.274041    9.4838148    12.612127     22.30075    14.235163 
   21400     462.3528     59213189            0     59214989    12.683368    22.410453    14.187574     19.73922    33.275696    9.4742286    12.612127     22.30075    14.235163 
   21600    354.99005     59213089            0     59214471    12.683307    22.410412    14.188577    19.733156    33.271521    9.5745166    12.612127     22.30075    14.235163 
   21800    588.56051     59212343            0     59214635    12.683364    22.410302    14.188318    19.738887    33.260568    9.5486478    12.612127     22.30075    14.235163 
   22000    477.89074     59212365            0     59214225    12.683327    22.410317    14.188264    19.735183    33.262045    9.5432349    12.612127     22.30075    14.235163 
   22200    772.98623     59213554            0     59216563    12.683245    22.410411      14.1891    19.726971     33.27147    9.6268604    12.612127     22.30075    14.235163 
   22400    971.09744     59212542            0     59216323    12.683522     22.41055     14.18833    19.754638    33.285322    9.5498933    12.612127     22.30075    14.235163 
   22600    283.39247     59213347            0     59214450    12.683359    22.410452    14.187696    19.738313    33.275582    9.4864104    12.612127     22.30075    14.235163 
   22800    304.48455     59213472            0     59214657    12.683142     22.41036    14.187363     19.71664    33.266344    9.4531524    12.612127     22.30075    14.235163 
   23000    657.15947     59214223            0     59216781    12.683412    22.410231    14.187945     19.74365    33.253434    9.5113017    12.612127     22.30075    14.235163 
   23200      522.481     59212001            0     59214035     12.68316    22.410452    14.187937    19.718395    33.275611    9.5105266    12.612127     22.30075    14.235163 
   23400    391.04833     59213152            0     59214674    12.683343    22.410176    14.187948    19.736716    33.247945    9.5115894    12.612127     22.30075    14.235163 
   23600    492.35728     59211865            0     59213782    12.683197    22.410196     14.18804    19.722186    33.249961    9.5208813    12.612127     22.30075    14.235163 
   23800      497.171     59214422            0     59216357    12.683398    22.410466    14.188479      19.7423    33.276918     9.564806    12.612127     22.30075    14.235163 
   24000    411.33956     59212444            0     59214045    12.683256    22.410283    14.188164    19.728055    33.258662    9.5332474    12.612127     22.30075    14.235163 
   24200    434.60949     59212133            0     59213825    12.683311    22.410349    14.188516    19.733508    33.265237    9.5684809    12.612127     22.30075    14.235163 
   24400    985.65542     59213804            0     59217641    12.683374    22.410515    14.187842    19.739866    33.281883      9.50102    12.612127     22.30075    14.235163 
   24600    476.04681     59212095            0     59213948    12.683444    22.410296    14.188101    19.746895    33.260001    9.5269706    12.612127     22.30075    14.235163 
   24800    679.25622     59213159            0     59215803    12.683262    22.410302    14.188944    19.728679    33.260557    9.6113275    12.612127     22.30075    14.235163 
   25000    494.13759     59212549            0     59214473    12.683183    22.410283    14.187916    19.720709    33.258682    9.5084681    12.612127     22.30075    14.235163 
   25200    365.58537     59213890            0     59215313    12.683347     22.41045    14.188009    19.737191    33.275381    9.5177141    12.612127     22.30075    14.235163 
   25400    388.90856     59214226            0     59215740    12.683289    22.410381    14.187661    19.731326    33.268492    9.4829488    12.612127     22.30075    14.235163 
   25600    541.29554     59213991            0     59216099    12.683306    22.410343     14.18831    19.733093    33.264691    9.5478201    12.612127     22.30075    14.235163 
   25800    583.14287     59214929            0     59217199     12.68332    22.410388    14.187753    19.734483    33.269142    9.4921624    12.612127     22.30075    14.235163 
   26000    601.52883     59212986            0     59215328    12.683289    22.410335    14.188546    19.731347    33.263814    9.5715082    12.612127     22.30075    14.235163 
   26200    509.63863     59212115            0     59214099    12.683367    22.410281    14.188009    19.739191    33.258406    9.5177185    12.612127     22.30075    14.235163 
   26400    610.05367     59213043            0     59215417    12.683188    22.410473    14.187847    19.721212    33.277619    9.5014936    12.612127     22.30075    14.235163 
   26600    437.35695     59213093            0     59214796    12.683291    22.410367    14.187524    19.731508    33.267042    9.4691745    12.612127     22.30075    14.235163 
   26800     301.6598     59213312            0     59214486    12.683521    22.410464    14.188079    19.754526    33.276789    9.5246989    12.612127     22.30075    14.235163 
   27000    537.78879     59212536            0     59214629    12.683261    22.410444    14.188092    19.728511    33.274731    9.5260846    12.612127     22.30075    14.235163 
   27200    613.88078     59214516            0     59216905    12.683133    22.410319    14.188415    19.715767    33.262226     9.558371    12.612127     22.30075    14.235163 
   27400    449.65387     59213066            0     59214817    12.683295     22.41032    14.187834    19.731932    33.262342    9.5002192    12.612127     22.30075    14.235163 
   27600    299.21767     59212900            0     59214065    12.683448    22.410408    14.188196    19.747214    33.271126    9.5364948    12.612127     22.30075    14.235163 
   27800    457.51082     59213802            0     59215583    12.683264    22.410287    14.188348    19.728851    33.259081    9.5516915    12.612127     22.30075    14.235163 
   28000    404.91434     59211573            0     59213149    12.683266    22.410338    14.187936    19.729034    33.264145      9.51046    12.612127     22.30075    14.235163 
   28200    431.46594     59212720            0     59214399    12.683199    22.410307    14.187614    19.722311    33.261093    9.4782007    12.612127     22.30075    14.235163 
   28400    423.11757     59211581            0     59213228    12.683288    22.410384    14.188254    19.731275    33.268793    9.5422661    12.612127     22.30075    14.235163 
   28600     616.4597     59212169            0     59214569    12.683276     22.41025    14.187983    19.730009    33.255304      9.51514    12.612127     22.30075    14.235163 
   28800    604.61028     59212308            0     59214662    12.683365    22.410359     14.18822    19.738906    33.266228    9.5388264    12.612127     22.30075    14.235163 
   29000    340.60404     59211380            0     59212706    12.683367    22.410261    14.188141      19.7391    33.256476    9.5309658    12.612127     22.30075    14.235163 
   29200    550.98782     59213443            0     59215588    12.683218    22.410365     14.18792    19.724221    33.266888    9.5087947    12.612127     22.30075    14.235163 
   29400    772.67623     59212090            0     59215098    12.683294    22.410333     14.18762    19.731819    33.263704    9.4788098    12.612127     22.30075    14.235163 
   29600    587.36869     59213233            0     59215520    12.683165     22.41048    14.188133    19.718908    33.278391    9.5301719    12.612127     22.30075    14.235163 
   29800    326.14992     59213195            0     59214464    12.683207    22.410281    14.188076    19.723124    33.258415    9.5244915    12.612127     22.30075    14.235163 
   30000     371.7704     59211968            0     59213415    12.683282    22.410444    14.187873     19.73061    33.274787    9.5041323    12.612127     22.30075    14.235163 
   30200     331.0546     59212375            0     59213664    12.683326    22.410453    14.187855       19.735     33.27564    9.5023787    12.612127     22.30075    14.235163 
   30400    521.76284     59212704            0     59214735    12.683199    22.410261    14.187692    19.722327    33.256435    9.4860245    12.612127     22.30075    14.235163 
   30600    284.63625     59212708            0     59213816    12.683312     22.41037    14.188266    19.733694    33.267405    9.5434296    12.612127     22.30075    14.235163 
   30800    555.87435     59212229            0     59214393    12.683253    22.410239    14.188404     19.72778    33.254283    9.5572497    12.612127     22.30075    14.235163 
   31000    412.02206     59211598            0     59213202     12.68347    22.410362    14.187912    19.749482     33.26652    9.5080663    12.612127     22.30075    14.235163 
   31200    356.80695     59212959            0     59214348    12.683297    22.410358    14.187815     19.73216    33.266205    9.4982829    12.612127     22.30075    14.235163 
   31400    392.63053     59213710            0     59215239    12.683255    22.410372    14.187858    19.727922    33.267548    9.5026548    12.612127     22.30075    14.235163 
   31600    536.98812     59212267            0     59214357    12.683246    22.410476    14.187748    19.727011    33.277965    9.4916597    12.612127     22.30075    14.235163 
   31800    367.85133     59212612            0     59214044    12.683407    22.410356    14.188161    19.743139    33.265917    9.5329372    12.612127     22.30075    14.235163 
   32000    428.22022     59212361            0     59214028    12.683263    22.410344    14.187765     19.72879    33.264726    9.4933189    12.612127     22.30075    14.235163 
   32200    269.55278     59212508            0     59213557    12.683274    22.410483    14.187824    19.729895    33.278627    9.4992467    12.612127     22.30075    14.235163 
   32400    468.93686     59211557            0     59213382    12.683381     22.41042    14.188152    19.740596    33.272363      9.53209    12.612127     22.30075    14.235163 
   32600     429.0754     59212767            0     59214437    12.683414    22.410304    14.188607    19.743811    33.260729    9.5775247    12.612127     22.30075    14.235163 
   32800    521.13081     59211607            0     59213635    12.683345    22.410388    14.188521    19.736918    33.269113    9.5689284    12.612127     22.30075    14.235163 
   33000    497.63769     59211576            0     59213513    12.683383    22.410221    14.188053    19.740735    33.252403    9.5221745    12.612127     22.30075    14.235163 
   33200     551.8684     59211818            0     59213967    12.683311    22.410245    14.188101    19.733514    33.254902    9.5269713    12.612127     22.30075    14.235163 
   33400    469.15082     59213326            0     59215152    12.683403    22.410408    14.187473    19.742796    33.271188    9.4641326    12.612127     22.30075    14.235163 
   33600    538.33154     59213411            0     59215506    12.683454    22.410204    14.188021    19.747896    33.250741    9.5188977    12.612127     22.30075    14.235163 
   33800    378.10346     59213429            0     59214900    12.683425    22.410305    14.187749    19.744903    33.260819    9.4917209    12.612127     22.30075    14.235163 
   34000    609.70396     59212063            0     59214437    12.683316    22.410347    14.187916    19.734089    33.265062    9.5084177    12.612127     22.30075    14.235163 
   34200    414.32718     59212027            0     59213640    12.683245    22.410229    14.188216    19.726928    33.253264    9.5384353    12.612127     22.30075    14.235163 
   34400    528.58269     59213011            0     59215068    12.683171     22.41035    14.188022     19.71958    33.265335    9.5190819    12.612127     22.30075    14.235163 
   34600    726.02116     59212218            0     59215044    12.683352    22.410273    14.187902    19.737679    33.257621    9.5070192    12.612127     22.30075    14.235163 
   34800    429.52586     59212932            0     59214604    12.683461    22.410211    14.188507    19.748588     33.25149     9.567543    12.612127     22.30075    14.235163 
   35000    263.41169     59213631            0     59214657    12.683381    22.410391    14.188205    19.740575    33.269424    9.5373789    12.612127     22.30075    14.235163 
   35200    431.78137     59213124            0     59214805    12.683403    22.410453    14.187906    19.742753     33.27563    9.5074525    12.612127     22.30075    14.235163 
   35400    478.89268     59211885            0     59213750    12.683325     22.41035    14.188093    19.734911    33.265389    9.5261559    12.612127     22.30075    14.235163 
   35600    314.25811     59212887            0     59214111    12.683256    22.410404    14.187483    19.728032    33.270762      9.46514    12.612127     22.30075    14.235163 
   35800    409.12653     59211644            0     59213236    12.683276    22.410282    14.187951    19.730018    33.258556    9.5119236    12.612127     22.30075    14.235163 
   36000    479.63289     59211463            0     59213330    12.683324    22.410245    14.188247    19.734837    33.254867    9.5415058    12.612127     22.30075    14.235163 
   36200    392.68374     59212094            0     59213623    12.683305    22.410376    14.188426    19.732943    33.268008     9.559475    12.612127     22.30075    14.235163 
   36400    640.01586     59214456            0     59216947     12.68318    22.410406     14.18724    19.720458    33.270919    9.4407907    12.612127     22.30075    14.235163 
   36600    409.17764     59213401            0     59214994    12.683326    22.410413    14.188018    19.735058    33.271694    9.5186389    12.612127     22.30075    14.235163 
   36800     385.9931     59211751            0     59213254    12.683227    22.410342    14.188224    19.725125    33.264561    9.5392317    12.612127     22.30075    14.235163 
   37000     430.8438     59212098            0     59213775    12.683365    22.410378    14.187794    19.738936    33.268192    9.4962672    12.612127     22.30075    14.235163 
   37200    376.58091     59212451            0     59213917    12.683367    22.410329     14.18817    19.739116    33.263304    9.5338248    12.612127     22.30075    14.235163 
   37400    334.53144     59212484            0     59213787    12.683205    22.410202    14.188021    19.722947    33.250599    9.5189774    12.612127     22.30075    14.235163 
   37600     428.3453     59213729            0     59215397    12.683331     22.41048    14.188011    19.735545    33.278361    9.5179602    12.612127     22.30075    14.235163 
   37800     442.0269     59211453            0     59213174    12.683334    22.410482     14.18808     19.73588    33.278554    9.5248062    12.612127     22.30075    14.235163 
   38000    501.18114     59211500            0     59213452    12.683272    22.410318    14.188393    19.729672    33.262175    9.5561338    12.612127     22.30075    14.235163 
   38200    380.63698     59213952            0     59215434    12.683293    22.410235    14.186986    19.731709    33.253878    9.4154095    12.612127     22.30075    14.235163 
   38400    400.00982     59212609            0     59214166    12.683366    22.410364    14.188174    19.739088    33.266747    9.5342659    12.612127     22.30075    14.235163 
   38600    438.40754     59212851            0     59214558    12.683148    22.410473    14.188031    19.717252    33.277669    9.5199358    12.612127     22.30075    14.235163 
   38800    601.53084     59211594            0     59213935    12.683373    22.410408    14.188283    19.739776    33.271112    9.5451858    12.612127     22.30075    14.235163 
   39000    636.35455     59213043            0     59215520    12.683464    22.410212     14.18809    19.748872    33.251531    9.5258658    12.612127     22.30075    14.235163 
   39200    554.76341     59215072            0     59217231    12.683211    22.410373    14.187554    19.723564     33.26766     9.472249    12.612127     22.30075    14.235163 
   39400    273.44792     59213372            0     59214437    12.683242    22.410232    14.187687    19.726606    33.253531    9.4855348    12.612127     22.30075    14.235163 
   39600    271.58439     59213805            0     59214862    12.683365    22.410388    14.188392    19.738946    33.269148    9.5560916    12.612127     22.30075    14.235163 
   39800     362.7099     59212488            0     59213900     12.68333     22.41034    14.188194    19.735495    33.264313    9.5362391    12.612127     22.30075    14.235163 
   40000    512.96832     59212366            0     59214363    12.683344    22.410415    14.188036    19.736818    33.271884    9.5204085    12.612127     22.30075    14.235163 
   40200    529.50688     59213021            0     59215082    12.683358    22.410238    14.188419    19.738219    33.254202    9.5587209    12.612127     22.30075    14.235163 
   40400    463.24734     59212127            0     59213931    12.683255    22.410361    14.188105    19.727952    33.266508    9.5273926    12.612127     22.30075    14.235163 
   40600    319.47308     59213154            0     59214398     12.68329    22.410371    14.188011    19.731436    33.267491    9.5179444    12.612127     22.30075    14.235163 
   40800    246.56934     59213129            0     59214089    12.683252    22.410454    14.187944    19.727672    33.275802    9.5112183    12.612127     22.30075    14.235163 
   41000    353.51161     59213363            0     59214739    12.683391    22.410347    14.188327    19.741551     33.26505     9.549599    12.612127     22.30075    14.235163 
   41200    357.26517     59211903            0     59213294    12.683303    22.410473     14.18796    19.732765    33.277644    9.5128781    12.612127     22.30075    14.235163 
   41400    713.08886     59212442            0     59215218    12.683308    22.410375    14.188182    19.733268    33.267843    9.5350153    12.612127     22.30075    14.235163 
   41600    576.52265     59214057            0     59216301    12.683245    22.410471    14.188317    19.726965     33.27743    9.5485465    12.612127     22.30075    14.235163 
   41800    289.13573     59212002            0     59213127    12.683363    22.410381     14.18821    19.738773    33.268432    9.5378023    12.612127     22.30075    14.235163 
   42000    365.31004     59211220            0     59212643     12.68323    22.410232    14.188265    19.725486    33.253509    9.5433499    12.612127     22.30075    14.235163 
Loop time of 476.571 on 1 procs for 40000 steps with 1307 atoms

Performance: 3.626 ns/day, 6.619 hours/ns, 83.933 timesteps/s
100.0% CPU use with 1 MPI tasks x no OpenMP threads

MPI task timing breakdown:
Section |  min time  |  avg time  |  max time  |%varavg| %total
---------------------------------------------------------------
Pair    | 248        | 248        | 248        |   0.0 | 52.04
Bond    | 0.005949   | 0.005949   | 0.005949   |   0.0 |  0.00
Kspace  | 227.09     | 227.09     | 227.09     |   0.0 | 47.65
Neigh   | 0.051434   | 0.051434   | 0.051434   |   0.0 |  0.01
Comm    | 0.80578    | 0.80578    | 0.80578    |   0.0 |  0.17
Output  | 0.010429   | 0.010429   | 0.010429   |   0.0 |  0.00
Modify  | 0.31838    | 0.31838    | 0.31838    |   0.0 |  0.07
Other   |            | 0.2896     |            |       |  0.06

Nlocal:    1307 ave 1307 max 1307 min
Histogram: 1 0 0 0 0 0 0 0 0 0
Nghost:    7931 ave 7931 max 7931 min
Histogram: 1 0 0 0 0 0 0 0 0 0
Neighs:    491512 ave 491512 max 491512 min
Histogram: 1 0 0 0 0 0 0 0 0 0

Total # of neighbors = 491512
Ave neighs/atom = 376.061
Ave special neighs/atom = 0
Neighbor list builds = 3
Dangerous builds = 1
write_data         data_melt.data
PPPMDisp initialization ...
  Coulomb G vector (1/distance) = 0.264777
  Coulomb grid = 30 50 30
  Coulomb stencil order = 5
  Coulomb estimated absolute RMS force accuracy = 0.000346238
  Coulomb estimated relative force accuracy = 1.04269e-06
  using double precision FFTs
  3d grid and FFT values/proc = 78033 45000
unfix              3
fix                4 GUEST nvt temp 313 313 100.0

# get MOF COM
compute            MOFCOM MOF com
variable           MOFCOM1 equal c_MOFCOM[1]
variable           MOFCOM2 equal c_MOFCOM[2]
variable           MOFCOM3 equal c_MOFCOM[3]
thermo_style       custom step temp epair emol etotal c_comT[1] c_comT[2] c_comT[3] c_comG[1] c_comG[2] c_comG[3] c_comM[1] c_comM[2] c_comM[3] c_MOFCOM[1] c_MOFCOM[2] c_MOFCOM[3]

# don't make MOF flexible
run                0
PPPMDisp initialization ...
  Coulomb G vector (1/distance) = 0.264777
  Coulomb grid = 30 50 30
  Coulomb stencil order = 5
  Coulomb estimated absolute RMS force accuracy = 0.000346238
  Coulomb estimated relative force accuracy = 1.04269e-06
  using double precision FFTs
  3d grid and FFT values/proc = 78033 45000
Memory usage per processor = 12.3721 Mbytes
Step Temp E_pair E_mol TotEng comT[1] comT[2] comT[3] comG[1] comG[2] comG[3] comM[1] comM[2] comM[3] MOFCOM[1 MOFCOM[2 MOFCOM[3 
   42000    365.31004     59211220            0     59212643     12.68323    22.410232    14.188265    19.725486    33.253509    9.5433499    12.612127     22.30075    14.235163    12.612127     22.30075    14.235163 
Loop time of 9.53674e-07 on 1 procs for 0 steps with 1307 atoms

0.0% CPU use with 1 MPI tasks x no OpenMP threads

MPI task timing breakdown:
Section |  min time  |  avg time  |  max time  |%varavg| %total
---------------------------------------------------------------
Pair    | 0          | 0          | 0          |   0.0 |  0.00
Bond    | 0          | 0          | 0          |   0.0 |  0.00
Kspace  | 0          | 0          | 0          |   0.0 |  0.00
Neigh   | 0          | 0          | 0          |   0.0 |  0.00
Comm    | 0          | 0          | 0          |   0.0 |  0.00
Output  | 0          | 0          | 0          |   0.0 |  0.00
Modify  | 0          | 0          | 0          |   0.0 |  0.00
Other   |            | 9.537e-07  |            |       |100.00

Nlocal:    1307 ave 1307 max 1307 min
Histogram: 1 0 0 0 0 0 0 0 0 0
Nghost:    7931 ave 7931 max 7931 min
Histogram: 1 0 0 0 0 0 0 0 0 0
Neighs:    491482 ave 491482 max 491482 min
Histogram: 1 0 0 0 0 0 0 0 0 0

Total # of neighbors = 491482
Ave neighs/atom = 376.038
Ave special neighs/atom = 0
Neighbor list builds = 0
Dangerous builds = 0
velocity           GUEST create 313 38564
uncompute          MOFCOM
thermo_style       custom step temp epair emol etotal c_comT[1] c_comT[2] c_comT[3] c_comG[1] c_comG[2] c_comG[3] c_comM[1] c_comM[2] c_comM[3]
# fix                8 MOF recenter INIT INIT INIT shift all # Efrem says: technically should do this to get the diffusion coefficient correct, but not sure it works properly on rigid molecules, and it doesn't make a difference in practice because the drift is so small

# equilibration
run                1000000
PPPMDisp initialization ...
  Coulomb G vector (1/distance) = 0.264777
  Coulomb grid = 30 50 30
  Coulomb stencil order = 5
  Coulomb estimated absolute RMS force accuracy = 0.000346238
  Coulomb estimated relative force accuracy = 1.04269e-06
  using double precision FFTs
  3d grid and FFT values/proc = 78033 45000
Memory usage per processor = 12.3721 Mbytes
Step Temp E_pair E_mol TotEng comT[1] comT[2] comT[3] comG[1] comG[2] comG[3] comM[1] comM[2] comM[3] 
   42000    2.3966309     59211220            0     59211230     12.68323    22.410232    14.188265    19.725486    33.253509    9.5433499    12.612127     22.30075    14.235163 
   42200    830.06089     59212493            0     59215724    12.683382     22.41034    14.188018    19.740661    33.264374     9.518601    12.612127     22.30075    14.235163 
   42400    425.67162     59213610            0     59215267    12.683249    22.410336    14.187988    19.727387    33.263945    9.5156114    12.612127     22.30075    14.235163 
   42600    1000.0026     59212724            0     59216617    12.683124    22.410434    14.188336    19.714807    33.273804    9.5504931    12.612127     22.30075    14.235163 
   42800    492.79616     59212940            0     59214858    12.683384     22.41037    14.188206    19.740858    33.267393    9.5374141    12.612127     22.30075    14.235163 
   43000    375.08229     59212093            0     59213553    12.683422    22.410261     14.18786    19.744636    33.256436    9.5028111    12.612127     22.30075    14.235163 
   43200    530.01187     59214548            0     59216612    12.683304    22.410385    14.187542    19.732862    33.268851    9.4709936    12.612127     22.30075    14.235163 
   43400      462.672     59212699            0     59214500    12.683375    22.410467    14.188101    19.739943     33.27707    9.5269803    12.612127     22.30075    14.235163 
   43600    627.01576     59213446            0     59215887    12.683414    22.410268    14.188206    19.743851    33.257134     9.537482    12.612127     22.30075    14.235163 
   43800    359.17886     59212935            0     59214333    12.683344    22.410298     14.18744    19.736889     33.26011    9.4608012    12.612127     22.30075    14.235163 
   44000    421.41203     59214375            0     59216015    12.683465    22.410364    14.187945    19.748943    33.266757    9.5113197    12.612127     22.30075    14.235163 
   44200    399.54226     59213575            0     59215130    12.683236    22.410357    14.187683    19.726004    33.266057    9.4850759    12.612127     22.30075    14.235163 
   44400    292.99772     59213280            0     59214421     12.68337    22.410352    14.187865     19.73944    33.265593    9.5033827    12.612127     22.30075    14.235163 
   44600    391.20039     59212604            0     59214126    12.683441     22.41026    14.188253    19.746513    33.256341    9.5421629    12.612127     22.30075    14.235163 
   44800    440.23655     59213793            0     59215507    12.683468    22.410308    14.188657    19.749222    33.261176    9.5825163    12.612127     22.30075    14.235163 
   45000    455.65606     59212783            0     59214557    12.683274    22.410513    14.188078     19.72987    33.281687    9.5246665    12.612127     22.30075    14.235163 
   45200    371.52904     59212915            0     59214361    12.683367    22.410471    14.187845    19.739161    33.277464    9.5013762    12.612127     22.30075    14.235163 
   45400    485.73762     59214678            0     59216569    12.683305    22.410315    14.187323     19.73296    33.261854    9.4490615    12.612127     22.30075    14.235163 
   45600    365.53599     59211515            0     59212938    12.683416    22.410294    14.188155    19.744064    33.259708     9.532357    12.612127     22.30075    14.235163 
   45800    417.97394     59212516            0     59214143    12.683325    22.410244    14.187892    19.734923    33.254747    9.5060597    12.612127     22.30075    14.235163 
   46000    373.50197     59215260            0     59216714    12.683369    22.410385    14.188408    19.739341    33.268909    9.5576646    12.612127     22.30075    14.235163 
   46200    779.13043     59212325            0     59215358    12.683342    22.410319    14.187492    19.736626    33.262211    9.4659805    12.612127     22.30075    14.235163 
   46400     325.3414     59211889            0     59213155    12.683235    22.410399    14.187693    19.725943    33.270304    9.4861725    12.612127     22.30075    14.235163 
   46600    561.79605     59211631            0     59213818    12.683457    22.410376    14.188233    19.748154    33.267965    9.5401604    12.612127     22.30075    14.235163 
   46800    308.38754     59213093            0     59214293     12.68323     22.41029     14.18842    19.725456    33.259337    9.5588783    12.612127     22.30075    14.235163 
   47000    917.62445     59211177            0     59214750    12.683417    22.410368    14.188228    19.744164    33.267186    9.5396151    12.612127     22.30075    14.235163 
   47200    560.15459     59211983            0     59214164    12.683162    22.410245    14.187806    19.718651    33.254814    9.4974512    12.612127     22.30075    14.235163 
   47400    294.41504     59213940            0     59215086    12.683335    22.410308    14.187823    19.735929    33.261137    9.4991258    12.612127     22.30075    14.235163 
   47600    360.41645     59212532            0     59213935    12.683322    22.410334    14.188422    19.734692    33.263745    9.5590186    12.612127     22.30075    14.235163 
   47800    323.31951     59213578            0     59214837    12.683368    22.410277    14.187751    19.739221    33.258058    9.4918837    12.612127     22.30075    14.235163 
   48000    426.99325     59213834            0     59215496    12.683316    22.410421    14.187403    19.734018    33.272438    9.4570658    12.612127     22.30075    14.235163 
   48200    427.08964     59212425            0     59214088    12.683324    22.410392    14.188095    19.734821    33.269561    9.5263918    12.612127     22.30075    14.235163 
   48400    594.14466     59212021            0     59214334    12.683395    22.410356    14.188288    19.741918    33.265911    9.5456307    12.612127     22.30075    14.235163 
   48600    424.71241     59213562            0     59215216    12.683383    22.410289     14.18769    19.740759    33.259226    9.4858019    12.612127     22.30075    14.235163 
   48800    503.74222     59212027            0     59213988    12.683331    22.410486    14.187931    19.735591    33.278972    9.5099826    12.612127     22.30075    14.235163 
   49000    240.74437     59214123            0     59215061    12.683191    22.410432    14.188039    19.721566    33.273568    9.5207604    12.612127     22.30075    14.235163 
   49200    386.96148     59212903            0     59214410    12.683228    22.410362    14.188099    19.725284    33.266598    9.5267373    12.612127     22.30075    14.235163 
   49400    276.84598     59211770            0     59212848    12.683294    22.410438    14.187786    19.731822    33.274122    9.4953945    12.612127     22.30075    14.235163 
   49600    395.58823     59216406            0     59217946     12.68331    22.410427    14.187657    19.733496    33.273055    9.4824766    12.612127     22.30075    14.235163 
   49800    392.76895     59211587            0     59213116    12.683322    22.410327    14.188072    19.734688    33.263089    9.5240336    12.612127     22.30075    14.235163 
   50000    621.13687     59211859            0     59214277    12.683245    22.410333    14.188368    19.726937    33.263693    9.5536424    12.612127     22.30075    14.235163 
   50200    296.44824     59213426            0     59214580    12.683392    22.410286    14.187515    19.741696    33.258981    9.4683317    12.612127     22.30075    14.235163 
   50400    160.00755     59213708            0     59214331    12.683302    22.410373     14.18858    19.732669    33.267671    9.5748931    12.612127     22.30075    14.235163 
   50600    276.08832     59212739            0     59213814    12.683308    22.410341    14.188266    19.733241    33.264472    9.5434091    12.612127     22.30075    14.235163 
   50800    362.18487     59214182            0     59215592    12.683294    22.410379    14.188127    19.731868    33.268255    9.5295253    12.612127     22.30075    14.235163 
   51000    661.23449     59212501            0     59215075    12.683304     22.41039    14.187817    19.732807    33.269327    9.4985342    12.612127     22.30075    14.235163 
   51200    320.64235     59212180            0     59213428    12.683402    22.410312    14.187869    19.742679    33.261537     9.503741    12.612127     22.30075    14.235163 
   51400    448.72634     59212270            0     59214016    12.683271     22.41049    14.187947    19.729529    33.279336    9.5114948    12.612127     22.30075    14.235163 
   51600    298.44837     59212216            0     59213377    12.683282    22.410417    14.187807    19.730648    33.272033    9.4975397    12.612127     22.30075    14.235163 
   51800    411.02684     59212106            0     59213707    12.683346    22.410261    14.188588    19.737027    33.256469    9.5756466    12.612127     22.30075    14.235163 
   52000    423.54935     59212414            0     59214063    12.683305    22.410273    14.188396    19.732939    33.257689    9.5564217    12.612127     22.30075    14.235163 
   52200    374.18695     59213554            0     59215010    12.683441    22.410341    14.187984    19.746589    33.264447    9.5152642    12.612127     22.30075    14.235163 
   52400    479.40468     59213388            0     59215255    12.683321    22.410496     14.18773    19.734506     33.27999    9.4898714    12.612127     22.30075    14.235163 
   52600    420.95991     59212328            0     59213967    12.683365    22.410352    14.187706    19.738978    33.265552    9.4873903    12.612127     22.30075    14.235163 
   52800    437.30137     59213586            0     59215288    12.683434    22.410381    14.188002     19.74583    33.268475    9.5170596    12.612127     22.30075    14.235163 
   53000    489.30049     59212260            0     59214165    12.683262    22.410405    14.187989    19.728682    33.270877    9.5157168    12.612127     22.30075    14.235163 
   53200    330.38846     59211471            0     59212757    12.683311    22.410318    14.187884    19.733522    33.262152    9.5052286    12.612127     22.30075    14.235163 
   53400    252.87569     59212253            0     59213238    12.683245    22.410395     14.18807    19.726903    33.269884    9.5238616    12.612127     22.30075    14.235163 
   53600    418.53648     59211623            0     59213252    12.683317     22.41029    14.187919    19.734122    33.259327    9.5087706    12.612127     22.30075    14.235163 
   53800    243.09918     59211383            0     59212329    12.683379    22.410368    14.188322    19.740327      33.2672    9.5490182    12.612127     22.30075    14.235163 
   54000    329.20536     59214255            0     59215536     12.68333    22.410278    14.187603    19.735457     33.25816    9.4771525    12.612127     22.30075    14.235163 
   54200    374.02209     59212436            0     59213892     12.68337    22.410348    14.187905    19.739435    33.265182    9.5073197    12.612127     22.30075    14.235163 
   54400    448.47607     59210652            0     59212398    12.683333    22.410347    14.188136    19.735768    33.265025     9.530461    12.612127     22.30075    14.235163 
   54600     250.1911     59212928            0     59213902    12.683231    22.410364    14.187485    19.725537    33.266806    9.4653527    12.612127     22.30075    14.235163 
   54800    378.72604     59212335            0     59213809    12.683364    22.410288    14.187497    19.738846    33.259146    9.4665379    12.612127     22.30075    14.235163 
   55000    551.89269     59211115            0     59213264    12.683298    22.410346    14.187967    19.732228    33.264953     9.513581    12.612127     22.30075    14.235163 
   55200     305.2722     59213853            0     59215041    12.683365    22.410397    14.187991    19.738988     33.27002    9.5159161    12.612127     22.30075    14.235163 
   55400    598.04308     59212029            0     59214357    12.683236    22.410367    14.188053    19.726005    33.267093    9.5221752    12.612127     22.30075    14.235163 
   55600    400.87787     59213358            0     59214919    12.683365    22.410341    14.187566    19.738982    33.264456    9.4734449    12.612127     22.30075    14.235163 
   55800     362.2829     59211478            0     59212888    12.683308    22.410411    14.187782      19.7332     33.27145    9.4949895    12.612127     22.30075    14.235163 
   56000    217.27615     59212769            0     59213615    12.683233    22.410347    14.188033    19.725725    33.265039    9.5201125    12.612127     22.30075    14.235163 
   56200    492.66597     59212473            0     59214391    12.683286    22.410374    14.188086    19.731067    33.267753    9.5254349    12.612127     22.30075    14.235163 
   56400    293.46652     59212667            0     59213809    12.683293    22.410315     14.18809    19.731796    33.261827    9.5258746    12.612127     22.30075    14.235163 
   56600    255.49651     59213110            0     59214104    12.683395    22.410311    14.188282     19.74197    33.261474    9.5450244    12.612127     22.30075    14.235163 
   56800    706.32894     59212983            0     59215733    12.683267    22.410382    14.187968    19.729119    33.268517    9.5136527    12.612127     22.30075    14.235163 
   57000    379.05424     59212981            0     59214457    12.683268    22.410383    14.188253    19.729293    33.268702    9.5421106    12.612127     22.30075    14.235163 
   57200    239.10324     59213463            0     59214394    12.683329    22.410344    14.187658    19.735352    33.264771    9.4826572    12.612127     22.30075    14.235163 
   57400     251.7103     59214779            0     59215759    12.683316     22.41038    14.187894    19.734023    33.268369    9.5062648    12.612127     22.30075    14.235163 
   57600    259.59369     59212996            0     59214007    12.683407    22.410422    14.187615    19.743107    33.272568    9.4783664    12.612127     22.30075    14.235163 
   57800    492.23728     59212921            0     59214837    12.683304    22.410281    14.187528    19.732858    33.258501    9.4696401    12.612127     22.30075    14.235163 
   58000    555.17255     59211586            0     59213747    12.683396    22.410413    14.188334    19.742027    33.271616    9.5502291    12.612127     22.30075    14.235163 
   58200    285.51025     59215031            0     59216142     12.68325    22.410381    14.187983    19.727409    33.268423    9.5151447    12.612127     22.30075    14.235163 
   58400    337.67178     59214647            0     59215962    12.683336    22.410358    14.188396    19.736008    33.266126    9.5564325    12.612127     22.30075    14.235163 
   58600    532.58381     59213497            0     59215570    12.683342    22.410351    14.188225    19.736656    33.265416    9.5393259    12.612127     22.30075    14.235163 
   58800    258.48275     59212711            0     59213717    12.683318    22.410283    14.188116    19.734289    33.258629    9.5284728    12.612127     22.30075    14.235163 
   59000    196.13817     59212314            0     59213077    12.683262    22.410348    14.187888    19.728605    33.265148    9.5056447    12.612127     22.30075    14.235163 
   59200    302.59204     59213244            0     59214422     12.68339    22.410245    14.187566    19.741472    33.254844    9.4734611    12.612127     22.30075    14.235163 
   59400    417.28566     59211543            0     59213168     12.68334    22.410344    14.188203    19.736423     33.26472    9.5371322    12.612127     22.30075    14.235163 
   59600    305.74098     59212155            0     59213345    12.683322    22.410402    14.187937     19.73461    33.270578    9.5104875    12.612127     22.30075    14.235163 
   59800    300.33801     59214061            0     59215230    12.683351    22.410356    14.188114    19.737587    33.265987    9.5282368    12.612127     22.30075    14.235163 
   60000    245.14745     59212882            0     59213837    12.683345    22.410384    14.188023    19.736949     33.26876    9.5190976    12.612127     22.30075    14.235163 
   60200    373.86976     59212594            0     59214050    12.683298     22.41034     14.18839    19.732253    33.264357    9.5558114    12.612127     22.30075    14.235163 
   60400     224.7706     59212782            0     59213657    12.683394    22.410362    14.188311    19.741881    33.266565    9.5479168    12.612127     22.30075    14.235163 
   60600    310.83807     59212267            0     59213477    12.683267    22.410378    14.188168    19.729172    33.268152     9.533692    12.612127     22.30075    14.235163 
   60800      398.296     59215712            0     59217263    12.683354    22.410322    14.186977    19.737872    33.262543    9.4145419    12.612127     22.30075    14.235163 
   61000    255.39403     59213032            0     59214027    12.683299    22.410295    14.188104    19.732327    33.259883     9.527274    12.612127     22.30075    14.235163 
   61200      428.566     59212514            0     59214182    12.683337    22.410384    14.188027    19.736121    33.268791    9.5195665    12.612127     22.30075    14.235163 
   61400    424.40916     59211621            0     59213273    12.683332    22.410435    14.187781    19.735656    33.273877    9.4949227    12.612127     22.30075    14.235163 
   61600    423.44572     59213655            0     59215304    12.683241    22.410287    14.187178    19.726509    33.259083    9.4345751    12.612127     22.30075    14.235163 
   61800    333.94686     59211115            0     59212415     12.68323    22.410283     14.18787    19.725478    33.258632    9.5038534    12.612127     22.30075    14.235163 
   62000    300.03725     59213268            0     59214436    12.683311     22.41033    14.188422    19.733587    33.263315    9.5590425    12.612127     22.30075    14.235163 
   62200     487.3293     59211535            0     59213433    12.683354    22.410377    14.188524    19.737807    33.268068    9.5692853    12.612127     22.30075    14.235163 
   62400    373.32807     59212042            0     59213495    12.683336    22.410375    14.187688    19.736097    33.267876    9.4855793    12.612127     22.30075    14.235163 
   62600    235.30973     59215159            0     59216075    12.683294    22.410368    14.188144    19.731863    33.267131    9.5312562    12.612127     22.30075    14.235163 
   62800    301.95486     59212701            0     59213876    12.683254    22.410422    14.187375    19.727871    33.272533    9.4543585    12.612127     22.30075    14.235163 
   63000    344.24359     59214514            0     59215854    12.683313    22.410383    14.187408    19.733719    33.268624    9.4576073    12.612127     22.30075    14.235163 
   63200    354.07656     59214051            0     59215429    12.683254    22.410379    14.187654    19.727856    33.268216    9.4822395    12.612127     22.30075    14.235163 
   63400    187.59136     59211561            0     59212292    12.683329    22.410344     14.18789    19.735344    33.264753    9.5058345    12.612127     22.30075    14.235163 
   63600    439.70106     59212154            0     59213865    12.683357    22.410395    14.187961    19.738159    33.269889     9.512899    12.612127     22.30075    14.235163 
   63800    425.42806     59211377            0     59213033    12.683286    22.410406    14.187863    19.731085    33.270939    9.5031741    12.612127     22.30075    14.235163 
   64000    303.26173     59211936            0     59213117    12.683323    22.410357    14.188235    19.734789    33.266032     9.540315    12.612127     22.30075    14.235163 
   64200    231.66425     59211255            0     59212157    12.683394    22.410357     14.18816    19.741878     33.26604    9.5328108    12.612127     22.30075    14.235163 
   64400    426.88567     59213943            0     59215605     12.68328    22.410306    14.187647    19.730468     33.26097    9.4815375    12.612127     22.30075    14.235163 
   64600    568.39852     59213635            0     59215848    12.683295    22.410315    14.187696    19.731932    33.261827    9.4863779    12.612127     22.30075    14.235163 
   64800    131.35134     59212709            0     59213220    12.683251    22.410353    14.188662    19.727495    33.265666    9.5830428    12.612127     22.30075    14.235163 
   65000    176.81407     59214472            0     59215160    12.683289    22.410345    14.187568     19.73132    33.264873     9.473652    12.612127     22.30075    14.235163 
   65200    153.21422     59213730            0     59214327    12.683298    22.410258    14.188368    19.732238    33.256174    9.5536744    12.612127     22.30075    14.235163 
   65400    396.27384     59211917            0     59213460    12.683285    22.410325    14.187601    19.730975    33.262822    9.4769565    12.612127     22.30075    14.235163 
   65600    493.80071     59211554            0     59213476    12.683304    22.410331    14.187912    19.732861    33.263418    9.5080169    12.612127     22.30075    14.235163 
   65800    150.21237     59213190            0     59213775    12.683367    22.410258    14.187996    19.739197    33.256145    9.5164883    12.612127     22.30075    14.235163 
   66000    276.34725     59213367            0     59214443    12.683268    22.410372    14.187758    19.729267    33.267522    9.4926325    12.612127     22.30075    14.235163 
   66200    334.93139     59213377            0     59214680    12.683293    22.410372    14.187762    19.731701    33.267555    9.4930225    12.612127     22.30075    14.235163 
   66400    352.38412     59212835            0     59214207    12.683372    22.410241    14.188565    19.739678    33.254497    9.5733808    12.612127     22.30075    14.235163 
   66600    331.18323     59214069            0     59215358    12.683248    22.410331    14.188146    19.727201     33.26343    9.5314084    12.612127     22.30075    14.235163 
   66800    249.42194     59212987            0     59213958    12.683305    22.410448    14.187505    19.732922    33.275126    9.4673028    12.612127     22.30075    14.235163 
   67000    257.65151     59213149            0     59214152    12.683304    22.410309     14.18833    19.732847    33.261214    9.5498733    12.612127     22.30075    14.235163 
   67200    314.46045     59211803            0     59213027    12.683247    22.410283    14.188272    19.727167    33.258663    9.5440411    12.612127     22.30075    14.235163 
   67400    421.69579     59213221            0     59214863    12.683359    22.410332    14.187804    19.738398    33.263558    9.4972316    12.612127     22.30075    14.235163 
   67600     323.9198     59213275            0     59214536     12.68328    22.410375    14.188199    19.730442     33.26782    9.5367951    12.612127     22.30075    14.235163 
   67800    362.64955     59212393            0     59213804    12.683471    22.410347    14.188182    19.749558    33.265039    9.5350208    12.612127     22.30075    14.235163 
   68000    205.66697     59214267            0     59215068    12.683236    22.410418     14.18776    19.726064    33.272164    9.4928434    12.612127     22.30075    14.235163 
   68200    227.66495     59214551            0     59215437    12.683272     22.41036    14.187754    19.729607    33.266356    9.4922037    12.612127     22.30075    14.235163 
   68400    241.81774     59213132            0     59214073    12.683283     22.41027    14.187922     19.73077    33.257381    9.5090226    12.612127     22.30075    14.235163 
   68600    202.57714     59213141            0     59213930    12.683361    22.410343    14.187886    19.738509    33.264613    9.5054711    12.612127     22.30075    14.235163 
   68800    183.33803     59212532            0     59213245    12.683303    22.410399    14.187447     19.73277    33.270298    9.4614716    12.612127     22.30075    14.235163 
   69000    211.20169     59212605            0     59213427    12.683309    22.410335    14.188027    19.733307    33.263838    9.5195612    12.612127     22.30075    14.235163 
   69200    239.08612     59211441            0     59212371    12.683383    22.410325    14.188318    19.740775    33.262846    9.5486757    12.612127     22.30075    14.235163 
   69400    266.39292     59214291            0     59215328    12.683227    22.410319    14.187941    19.725164    33.262231    9.5109326    12.612127     22.30075    14.235163 
   69600    571.85891     59213104            0     59215330    12.683335    22.410398    14.187307    19.735943    33.270162    9.4474675    12.612127     22.30075    14.235163 
   69800    205.28354     59212094            0     59212893    12.683352    22.410401    14.188091    19.737672    33.270441    9.5258936    12.612127     22.30075    14.235163 
   70000    221.13789     59212893            0     59213754    12.683306    22.410325     14.18732    19.732999    33.262902    9.4488591    12.612127     22.30075    14.235163 
   70200    569.31909     59212715            0     59214932     12.68343    22.410402    14.187475     19.74545    33.270546     9.464308    12.612127     22.30075    14.235163 
   70400    307.89422     59212192            0     59213391    12.683304    22.410399    14.187898    19.732845    33.270263    9.5066591    12.612127     22.30075    14.235163 
   70600    236.98167     59212236            0     59213158    12.683313    22.410297    14.188471    19.733765    33.260021    9.5639238    12.612127     22.30075    14.235163 
   70800     227.5061     59213242            0     59214128     12.68322    22.410263    14.188119    19.724451    33.256674    9.5287156    12.612127     22.30075    14.235163 
   71000    273.40978     59214898            0     59215962    12.683264    22.410323    14.187764    19.728849    33.262618    9.4932391    12.612127     22.30075    14.235163 
   71200    290.78539     59215842            0     59216974     12.68329     22.41039    14.188208    19.731456    33.269325    9.5376153    12.612127     22.30075    14.235163 
   71400    419.84308     59211780            0     59213415     12.68339     22.41032    14.188256    19.741441    33.262373    9.5424563    12.612127     22.30075    14.235163 
   71600    399.99576     59214723            0     59216280    12.683282    22.410413    14.187936    19.730685    33.271624    9.5104288    12.612127     22.30075    14.235163 
   71800    373.20027     59214735            0     59216188    12.683384    22.410345    14.187228      19.7409    33.264823    9.4395607    12.612127     22.30075    14.235163 
[...]
 1022000    156.81771     59210645            0     59211255    12.683294    22.410361    14.188201      19.7318    33.266469    9.5369717    12.612127     22.30075    14.235163 
 1022200     204.6093     59210981            0     59211778    12.683316    22.410349    14.187982     19.73407    33.265282    9.5150764    12.612127     22.30075    14.235163 
 1022400    226.88185     59210687            0     59211570    12.683318    22.410348    14.188087    19.734288    33.265171    9.5255104    12.612127     22.30075    14.235163 
 1022600    221.54666     59211406            0     59212269    12.683316    22.410353    14.188049    19.734029    33.265695    9.5217039    12.612127     22.30075    14.235163 
 1022800    183.26418     59211398            0     59212112    12.683317    22.410354    14.188378    19.734139    33.265726     9.554704    12.612127     22.30075    14.235163 
 1023000    181.05956     59209899            0     59210604    12.683321    22.410361    14.188093    19.734573    33.266459    9.5261222    12.612127     22.30075    14.235163 
 1023200    125.20311     59211498            0     59211986    12.683326    22.410333    14.188337    19.735049     33.26368    9.5506002    12.612127     22.30075    14.235163 
 1023400    231.46988     59210889            0     59211790    12.683326     22.41035    14.188234    19.735027    33.265386    9.5402664    12.612127     22.30075    14.235163 
 1023600    202.11556     59210583            0     59211370    12.683296     22.41033    14.188111    19.732083    33.263354    9.5279265    12.612127     22.30075    14.235163 
 1023800    145.90672     59209942            0     59210510    12.683322    22.410353    14.188038    19.734641    33.265657    9.5206061    12.612127     22.30075    14.235163 
 1024000    252.80512     59211190            0     59212174    12.683317    22.410353    14.188131    19.734119    33.265691    9.5298977    12.612127     22.30075    14.235163 
 1024200    225.53675     59210515            0     59211393    12.683331    22.410353    14.188009    19.735525    33.265679    9.5177217    12.612127     22.30075    14.235163 
 1024400    222.21324     59210792            0     59211657    12.683335    22.410354    14.188113    19.735936    33.265717    9.5280947    12.612127     22.30075    14.235163 
 1024600    203.99931     59211703            0     59212497    12.683288    22.410383    14.187917    19.731273    33.268646    9.5085708    12.612127     22.30075    14.235163 
 1024800    237.07024     59210511            0     59211434    12.683315    22.410318    14.188131    19.733955    33.262191    9.5299593    12.612127     22.30075    14.235163 
 1025000    290.00622     59210017            0     59211146    12.683315    22.410352    14.188169    19.733916    33.265539    9.5337321    12.612127     22.30075    14.235163 
 1025200    232.22802     59210645            0     59211549    12.683316    22.410349    14.187985    19.734059    33.265281    9.5153153    12.612127     22.30075    14.235163 
 1025400    208.61094     59211507            0     59212319    12.683333    22.410352    14.188164    19.735706    33.265593    9.5332513    12.612127     22.30075    14.235163 
 1025600    121.39891     59210409            0     59210882    12.683315    22.410354    14.188105    19.733994    33.265725    9.5273576    12.612127     22.30075    14.235163 
 1025800    183.04855     59210384            0     59211096     12.68333    22.410353    14.188072     19.73545    33.265624     9.524011    12.612127     22.30075    14.235163 
 1026000    173.38265     59211214            0     59211889    12.683315    22.410353    14.188337    19.733903    33.265699    9.5505619    12.612127     22.30075    14.235163 
 1026200    127.67686     59210680            0     59211177    12.683288    22.410355    14.188144    19.731262    33.265838    9.5312289    12.612127     22.30075    14.235163 
 1026400    129.03618     59210247            0     59210750    12.683322    22.410342    14.188092    19.734692    33.264519    9.5260319    12.612127     22.30075    14.235163 
 1026600    205.56096     59210251            0     59211052    12.683301    22.410354    14.188297    19.732528    33.265808    9.5465997    12.612127     22.30075    14.235163 
 1026800    345.48591     59211268            0     59212613    12.683316    22.410353    14.188002    19.734008    33.265687    9.5170315    12.612127     22.30075    14.235163 
 1027000    230.61593     59211548            0     59212446    12.683308    22.410369    14.188286    19.733261    33.267248    9.5454662    12.612127     22.30075    14.235163 
 1027200    139.88106     59211863            0     59212408    12.683332    22.410352    14.188255    19.735612    33.265535    9.5423438    12.612127     22.30075    14.235163 
 1027400     78.40675     59210122            0     59210427    12.683329    22.410327    14.188074    19.735333    33.263088    9.5242805    12.612127     22.30075    14.235163 
 1027600    412.13434     59210727            0     59212332    12.683311    22.410368    14.188052    19.733567    33.267174    9.5220767    12.612127     22.30075    14.235163 
 1027800     208.0374     59210810            0     59211620    12.683327     22.41033    14.188135    19.735178    33.263385    9.5302972    12.612127     22.30075    14.235163 
 1028000    169.91467     59210918            0     59211579    12.683312    22.410348    14.188062    19.733687    33.265181    9.5230445    12.612127     22.30075    14.235163 
 1028200    342.29085     59210432            0     59211765    12.683316    22.410354    14.188075    19.734058    33.265755    9.5243742    12.612127     22.30075    14.235163 
 1028400    306.66161     59210260            0     59211454    12.683319    22.410346    14.188286    19.734392    33.264988     9.545482    12.612127     22.30075    14.235163 
 1028600    171.87391     59211261            0     59211931    12.683325    22.410348    14.188091    19.734954    33.265136    9.5259287    12.612127     22.30075    14.235163 
 1028800    263.27236     59210222            0     59211247    12.683313    22.410359    14.188071    19.733719    33.266255    9.5239911    12.612127     22.30075    14.235163 
 1029000     145.0894     59209423            0     59209988    12.683315    22.410338    14.188095    19.733914     33.26416    9.5263451    12.612127     22.30075    14.235163 
 1029200    74.207032     59211017            0     59211306    12.683328    22.410373    14.188213    19.735254    33.267617    9.5381786    12.612127     22.30075    14.235163 
 1029400    205.23099     59211158            0     59211957    12.683314    22.410339    14.188163    19.733799    33.264278    9.5331014    12.612127     22.30075    14.235163 
 1029600    185.52711     59211818            0     59212540    12.683321    22.410362    14.188311    19.734569    33.266595     9.547994    12.612127     22.30075    14.235163 
 1029800    249.91813     59210945            0     59211917    12.683302    22.410381    14.188113    19.732688    33.268423    9.5281481    12.612127     22.30075    14.235163 
 1030000    117.48662     59210213            0     59210670    12.683304    22.410374    14.188114    19.732841    33.267744    9.5282245    12.612127     22.30075    14.235163 
 1030200    318.41331     59211216            0     59212455    12.683318    22.410358    14.188191    19.734237    33.266168      9.53595    12.612127     22.30075    14.235163 
 1030400    131.10883     59211356            0     59211866    12.683337    22.410369    14.187993     19.73617    33.267292    9.5161585    12.612127     22.30075    14.235163 
 1030600    325.36179     59210844            0     59212110    12.683289    22.410341    14.188115    19.731335    33.264412    9.5283908    12.612127     22.30075    14.235163 
 1030800    151.17906     59211502            0     59212090    12.683316    22.410353    14.188082    19.734021    33.265673    9.5250533    12.612127     22.30075    14.235163 
 1031000     112.2271     59212091            0     59212527    12.683316    22.410352    14.188032    19.734091    33.265521    9.5199941    12.612127     22.30075    14.235163 
 1031200    161.16009     59212318            0     59212945    12.683326    22.410355    14.187804    19.735017    33.265812    9.4972058    12.612127     22.30075    14.235163 
 1031400    252.10974     59210931            0     59211912    12.683337    22.410349    14.188306    19.736126    33.265293    9.5474828    12.612127     22.30075    14.235163 
 1031600    223.07483     59211133            0     59212001    12.683296    22.410355    14.188183     19.73203    33.265825    9.5351687    12.612127     22.30075    14.235163 
 1031800    172.87773     59211237            0     59211910    12.683316    22.410353    14.188019    19.734014    33.265686    9.5187019    12.612127     22.30075    14.235163 
 1032000    299.57569     59211814            0     59212980    12.683339    22.410341    14.187818    19.736348    33.264472     9.498655    12.612127     22.30075    14.235163 
 1032200    283.75766     59210989            0     59212094    12.683318    22.410322    14.188307    19.734202    33.262557    9.5475856    12.612127     22.30075    14.235163 
 1032400     139.2493     59211192            0     59211734    12.683309    22.410354    14.188169     19.73331    33.265776    9.5337254    12.612127     22.30075    14.235163 
 1032600     153.2962     59210028            0     59210625    12.683316    22.410352    14.188031    19.734072    33.265575    9.5199038    12.612127     22.30075    14.235163 
 1032800    180.19467     59210881            0     59211583    12.683333    22.410363    14.187978    19.735727    33.266644    9.5145954    12.612127     22.30075    14.235163 
 1033000    178.44511     59211855            0     59212550    12.683315    22.410354    14.188292    19.733979    33.265753    9.5460668    12.612127     22.30075    14.235163 
 1033200    228.50875     59211069            0     59211959    12.683294    22.410355    14.188176    19.731822    33.265903    9.5344678    12.612127     22.30075    14.235163 
 1033400    118.72946     59211544            0     59212007    12.683316    22.410358    14.188138    19.734089     33.26616     9.530622    12.612127     22.30075    14.235163 
 1033600    148.32506     59211614            0     59212191    12.683323    22.410364    14.188007    19.734743    33.266752      9.51757    12.612127     22.30075    14.235163 
 1033800    118.99728     59211277            0     59211740    12.683303    22.410339    14.188378    19.732762    33.264239    9.5546647    12.612127     22.30075    14.235163 
 1034000    336.14199     59210783            0     59212091    12.683298    22.410339     14.18819    19.732198    33.264223    9.5358039    12.612127     22.30075    14.235163 
 1034200    216.93875     59211206            0     59212051    12.683324    22.410365     14.18821    19.734811    33.266906    9.5378306    12.612127     22.30075    14.235163 
 1034400    217.08224     59210129            0     59210974    12.683305    22.410358    14.188232     19.73292    33.266165    9.5400594    12.612127     22.30075    14.235163 
 1034600     206.5517     59210085            0     59210889    12.683321    22.410354    14.188191    19.734501    33.265757    9.5359561    12.612127     22.30075    14.235163 
 1034800    70.929441     59211885            0     59212161    12.683303    22.410368    14.188038    19.732703    33.267189    9.5206183    12.612127     22.30075    14.235163 
 1035000    247.64653     59210870            0     59211834    12.683305    22.410354    14.188181    19.732966    33.265722    9.5349117    12.612127     22.30075    14.235163 
 1035200    202.68915     59211273            0     59212062     12.68334    22.410362    14.188246    19.736408    33.266574     9.541497    12.612127     22.30075    14.235163 
 1035400    182.49313     59211026            0     59211737    12.683325    22.410354    14.188314    19.734917    33.265742    9.5482496    12.612127     22.30075    14.235163 
 1035600    225.77312     59210630            0     59211509    12.683316    22.410358    14.188201     19.73408    33.266122    9.5369257    12.612127     22.30075    14.235163 
 1035800    306.89764     59211090            0     59212285    12.683336    22.410349    14.188216    19.736084    33.265237    9.5384363    12.612127     22.30075    14.235163 
 1036000    215.05453     59210601            0     59211439    12.683315    22.410346    14.188303    19.733946    33.264942    9.5471684    12.612127     22.30075    14.235163 
 1036200    172.18151     59211313            0     59211983    12.683317    22.410355    14.187892    19.734152    33.265897     9.506062    12.612127     22.30075    14.235163 
 1036400    229.03983     59211252            0     59212144    12.683336    22.410361    14.188065    19.736035     33.26647    9.5233341    12.612127     22.30075    14.235163 
 1036600    102.24405     59210996            0     59211394    12.683306    22.410373    14.188202    19.733081    33.267684    9.5370584    12.612127     22.30075    14.235163 
 1036800    134.47042     59211457            0     59211981    12.683348    22.410351    14.188219    19.737273    33.265506    9.5387344    12.612127     22.30075    14.235163 
 1037000    416.37646     59210386            0     59212007    12.683316    22.410353    14.188171    19.734013    33.265686    9.5339309    12.612127     22.30075    14.235163 
 1037200    147.11517     59211221            0     59211793    12.683304    22.410354    14.188024    19.732893    33.265747    9.5192455    12.612127     22.30075    14.235163 
 1037400    267.34314     59211656            0     59212697    12.683344    22.410372    14.188044    19.736839    33.267557    9.5212029    12.612127     22.30075    14.235163 
 1037600    167.36708     59209428            0     59210079    12.683316    22.410353    14.188045    19.734014    33.265686    9.5213357    12.612127     22.30075    14.235163 
 1037800    342.64587     59210693            0     59212027    12.683307    22.410354    14.188186     19.73314    33.265737    9.5354945    12.612127     22.30075    14.235163 
 1038000    169.77123     59212207            0     59212868    12.683316    22.410353    14.188078    19.734014    33.265686    9.5246165    12.612127     22.30075    14.235163 
 1038200    91.666616     59211430            0     59211787     12.68331    22.410345    14.188182    19.733466     33.26485    9.5350025    12.612127     22.30075    14.235163 
 1038400    163.39152     59211473            0     59212109     12.68328    22.410367    14.188397    19.730436    33.267016    9.5565896    12.612127     22.30075    14.235163 
 1038600    152.71127     59210372            0     59210967    12.683332    22.410352    14.188011    19.735667    33.265606    9.5179867    12.612127     22.30075    14.235163 
 1038800    139.88207     59210944            0     59211488    12.683302    22.410347    14.188114    19.732617    33.265101    9.5282645    12.612127     22.30075    14.235163 
 1039000    131.46496     59210720            0     59211231    12.683325    22.410334    14.188304    19.734976    33.263783    9.5472837    12.612127     22.30075    14.235163 
 1039200    147.07981     59211076            0     59211648    12.683349    22.410352    14.188219    19.737395    33.265516    9.5387912    12.612127     22.30075    14.235163 
 1039400    210.03925     59210773            0     59211591    12.683294    22.410342     14.18816    19.731879    33.264532    9.5328384    12.612127     22.30075    14.235163 
 1039600    142.47235     59210417            0     59210972    12.683313    22.410377    14.187976    19.733737    33.268093    9.5144155    12.612127     22.30075    14.235163 
 1039800    249.90786     59210628            0     59211600    12.683319    22.410359    14.188107    19.734326    33.266261    9.5275477    12.612127     22.30075    14.235163 
 1040000    170.04917     59211673            0     59212335    12.683294    22.410353    14.187828    19.731827     33.26569    9.4996583    12.612127     22.30075    14.235163 
 1040200    124.06519     59211335            0     59211818    12.683318     22.41036    14.188142    19.734238    33.266326     9.531066    12.612127     22.30075    14.235163 
 1040400    187.51405     59211860            0     59212590    12.683321    22.410381    14.188033    19.734529     33.26846    9.5201341    12.612127     22.30075    14.235163 
 1040600    114.61387     59211979            0     59212426    12.683311    22.410354    14.188246    19.733532    33.265751    9.5414826    12.612127     22.30075    14.235163 
 1040800    138.23714     59211273            0     59211811     12.68332    22.410353    14.188327    19.734401    33.265672    9.5495521    12.612127     22.30075    14.235163 
 1041000    389.40647     59210740            0     59212256    12.683315    22.410355    14.188204      19.7339    33.265849    9.5372466    12.612127     22.30075    14.235163 
 1041200    231.20707     59211303            0     59212203    12.683315    22.410349    14.188042     19.73393    33.265299    9.5209992    12.612127     22.30075    14.235163 
 1041400    170.11958     59210659            0     59211322    12.683313    22.410349    14.188128    19.733741    33.265268    9.5296825    12.612127     22.30075    14.235163 
 1041600     225.8861     59209735            0     59210614    12.683342    22.410324    14.188152    19.736604    33.262764    9.5320754    12.612127     22.30075    14.235163 
 1041800    285.26005     59210374            0     59211485    12.683309    22.410341    14.187989    19.733304    33.264413     9.515714    12.612127     22.30075    14.235163 
 1042000    110.33336     59210368            0     59210797    12.683316    22.410354    14.188202    19.734013    33.265777    9.5370623    12.612127     22.30075    14.235163 
Loop time of 12158.6 on 1 procs for 1000000 steps with 1307 atoms

Performance: 3.553 ns/day, 6.755 hours/ns, 82.246 timesteps/s
100.0% CPU use with 1 MPI tasks x no OpenMP threads

MPI task timing breakdown:
Section |  min time  |  avg time  |  max time  |%varavg| %total
---------------------------------------------------------------
Pair    | 6223       | 6223       | 6223       |   0.0 | 51.18
Bond    | 0.1665     | 0.1665     | 0.1665     |   0.0 |  0.00
Kspace  | 5892.4     | 5892.4     | 5892.4     |   0.0 | 48.46
Neigh   | 0          | 0          | 0          |   0.0 |  0.00
Comm    | 26.72      | 26.72      | 26.72      |  -nan |  0.22
Output  | 0.28177    | 0.28177    | 0.28177    |   0.0 |  0.00
Modify  | 7.6033     | 7.6033     | 7.6033     |   0.0 |  0.06
Other   |            | 8.464      |            |       |  0.07

Nlocal:    1307 ave 1307 max 1307 min
Histogram: 1 0 0 0 0 0 0 0 0 0
Nghost:    7931 ave 7931 max 7931 min
Histogram: 1 0 0 0 0 0 0 0 0 0
Neighs:    491482 ave 491482 max 491482 min
Histogram: 1 0 0 0 0 0 0 0 0 0

Total # of neighbors = 491482
Ave neighs/atom = 376.038
Ave special neighs/atom = 0
Neighbor list builds = 0
Dangerous builds = 0
write_data         data_nvt_eq.data
PPPMDisp initialization ...
  Coulomb G vector (1/distance) = 0.264777
  Coulomb grid = 30 50 30
  Coulomb stencil order = 5
  Coulomb estimated absolute RMS force accuracy = 0.000346238
  Coulomb estimated relative force accuracy = 1.04269e-06
  using double precision FFTs
  3d grid and FFT values/proc = 78033 45000

# data collection
reset_timestep     0
fix                5 GUEST ave/time 1 1 10 f_4[1] f_4[2] f_4[3] f_4[13] f_4[14] f_4[15] file traj.CofMs mode vector
ERROR: Fix ave/time fix does not calculate an array (../fix_ave_time.cpp:238)
