LAMMPS (30 Jul 2016)

# ----------------- Init Section -----------------

units real
processors 1 1 1
newton off
atom_style full
atom_modify sort 0 10.0

# ----------------- Atom Definition Section -----------------

read_data "MgMOF74-Pressure50000.data"
  orthogonal box = (0.4447 0.31425 -0.401771) to (26.5587 45.5442 27.2652)
  1 by 1 by 1 MPI processor grid
  reading atoms ...
  1307 atoms
  0 = max # of 1-2 neighbors
  0 = max # of 1-3 neighbors
  0 = max # of 1-4 neighbors
  1 = max # of special neighbors

# ----------------- Settings Section -----------------

#include "MgMOF74-Pressure50000.in.settings"

# ----------------- Run Section -----------------

# define groups
group GUEST type 1
11 atoms in group GUEST
group MOF type 2 3 4 5 6 7 8 9 10
1296 atoms in group MOF

# define computes
compute comT all com
compute comG GUEST com
compute comM MOF com

# settings
timestep           0.1
thermo             200
thermo_style       custom step temp epair emol etotal c_comT[1] c_comT[2] c_comT[3] c_comG[1] c_comG[2] c_comG[3] c_comM[1] c_comM[2] c_comM[3]
restart            2000000 sim.restart

# reset box to start at 0
change_box         all x delta $(-xlo) $(-xlo) y delta $(-ylo) $(-ylo) z delta $(-zlo) $(-zlo) remap units box
change_box         all x delta -0.44469999999999998419 $(-xlo) y delta $(-ylo) $(-ylo) z delta $(-zlo) $(-zlo) remap units box
change_box         all x delta -0.44469999999999998419 -0.44469999999999998419 y delta $(-ylo) $(-ylo) z delta $(-zlo) $(-zlo) remap units box
change_box         all x delta -0.44469999999999998419 -0.44469999999999998419 y delta -0.3142499999999999738 $(-ylo) z delta $(-zlo) $(-zlo) remap units box
change_box         all x delta -0.44469999999999998419 -0.44469999999999998419 y delta -0.3142499999999999738 -0.3142499999999999738 z delta $(-zlo) $(-zlo) remap units box
change_box         all x delta -0.44469999999999998419 -0.44469999999999998419 y delta -0.3142499999999999738 -0.3142499999999999738 z delta 0.40177099999999998925 $(-zlo) remap units box
change_box         all x delta -0.44469999999999998419 -0.44469999999999998419 y delta -0.3142499999999999738 -0.3142499999999999738 z delta 0.40177099999999998925 0.40177099999999998925 remap units box
  orthogonal box = (0 0.31425 -0.401771) to (26.114 45.5442 27.2652)
  orthogonal box = (0 0 -0.401771) to (26.114 45.23 27.2652)
  orthogonal box = (0 0 0) to (26.114 45.23 27.667)
write_data         data_changebox.data

# get rid of overlapping atoms
run                0
WARNING: No fixes defined, atoms won't move (../verlet.cpp:55)
Memory usage per processor = 0.478851 Mbytes
Step Temp E_pair E_mol TotEng comT[1] comT[2] comT[3] comG[1] comG[2] comG[3] comM[1] comM[2] comM[3] 
       0            0            0            0            0    12.683318    22.424053    14.189073    19.734246    34.636249    9.6241346    12.612127     22.30075    14.235163 
Loop time of 0 on 1 procs for 0 steps with 1307 atoms

0.0% CPU use with 1 MPI tasks x no OpenMP threads

MPI task timing breakdown:
Section |  min time  |  avg time  |  max time  |%varavg| %total
---------------------------------------------------------------
Pair    | 0          | 0          | 0          |   0.0 |  0.00
Bond    | 0          | 0          | 0          |   0.0 |  0.00
Neigh   | 0          | 0          | 0          |   0.0 |  0.00
Comm    | 0          | 0          | 0          |   0.0 |  0.00
Output  | 0          | 0          | 0          |   0.0 |  0.00
Modify  | 0          | 0          | 0          |   0.0 |  0.00
Other   |            | 0          |            |       |  0.00

Nlocal:    1307 ave 1307 max 1307 min
Histogram: 1 0 0 0 0 0 0 0 0 0
Nghost:    0 ave 0 max 0 min
Histogram: 1 0 0 0 0 0 0 0 0 0
Neighs:    0 ave 0 max 0 min
Histogram: 1 0 0 0 0 0 0 0 0 0

Total # of neighbors = 0
Ave neighs/atom = 0
Ave special neighs/atom = 0
Neighbor list builds = 0
Dangerous builds = 0
velocity           GUEST create 313.0 1738
fix                1 GUEST nvt temp 313.0 313.0 1.0 tchain 3
compute            allTemp all temp
fix_modify         1 temp allTemp
neigh_modify       exclude molecule MOF
neigh_modify       exclude molecule GUEST
pair_style         soft 5.0
pair_coeff         * * 0.0 5.0
kspace_style       none
variable           prefactor equal ramp(1.0,20.0)
fix                2 all adapt 1 pair soft a * * v_prefactor
dump               1 all custom 500 dump-1.lammpstrj element x y z
dump_modify        1 element 1 2 3 4 5 6 7 8 9 10
run                100000
Neighbor list info ...
  1 neighbor list requests
  update every 1 steps, delay 10 steps, check yes
  max neighbors/atom: 2000, page size: 100000
  master list distance cutoff = 7
  ghost atom cutoff = 7
  binsize = 3.5 -> bins = 8 13 8
Memory usage per processor = 6.73162 Mbytes
Step Temp E_pair E_mol TotEng comT[1] comT[2] comT[3] comG[1] comG[2] comG[3] comM[1] comM[2] comM[3] 
       0    2.3966309    93.323754            0    102.65369    12.683318    22.424053    14.189073    19.734246    34.636249    9.6241346    12.612127     22.30075    14.235163 
     200    338.67136    92.736858            0    1411.1634    12.683318    22.424048    14.189073    19.734282    34.635735    9.6241731    12.612127     22.30075    14.235163 
     400     298.4384    79.494406            0    1241.2966    12.683321    22.424007    14.189078    19.734515    34.631614    9.6246721    12.612127     22.30075    14.235163 
     600    324.19891    71.520393            0    1333.6066    12.683315    22.423918    14.189094    19.733934    34.622686    9.6262571    12.612127     22.30075    14.235163 
     800    303.90116      96.8502            0    1279.9185    12.683305     22.42381    14.189102    19.732921    34.611887    9.6270958    12.612127     22.30075    14.235163 
    1000    320.82876    129.70357            0      1378.67    12.683305    22.423679    14.189085    19.732956    34.598809    9.6253862    12.612127     22.30075    14.235163 
    1200    307.23384    139.63112            0    1335.6734    12.683322     22.42349    14.189039    19.734678    34.579938    9.6207571    12.612127     22.30075    14.235163 
    1400    325.54275    135.67441            0    1402.9921    12.683352    22.423266    14.188964    19.737606    34.557503    9.6133051    12.612127     22.30075    14.235163 
    1600    307.79519    139.65615            0    1337.8837    12.683354    22.423058    14.188867    19.737806    34.536653    9.6035828    12.612127     22.30075    14.235163 
    1800    321.90952    150.38043            0    1403.5542    12.683247    22.422875    14.188757    19.727101    34.518347     9.592582    12.612127     22.30075    14.235163 
    2000    303.89125    155.82545            0    1338.8552    12.682951    22.422761    14.188657    19.697564    34.506965    9.5825488    12.612127     22.30075    14.235163 
    2200    325.53245    163.91165            0    1431.1893     12.68243    22.422759    14.188567    19.645459    34.506737    9.5736087    12.612127     22.30075    14.235163 
    2400    303.28943    173.52583            0    1354.2127    12.681689    22.422881    14.188477     19.57127    34.518941    9.5645543    12.612127     22.30075    14.235163 
    2600    310.03583    182.78861            0    1389.7388    12.680798    22.423104    14.188377    19.482158    34.541289    9.5545443    12.612127     22.30075    14.235163 
    2800     318.6843     179.2519            0    1419.8701    12.679861    22.423378    14.188268    19.388381    34.568745    9.5436004    12.612127     22.30075    14.235163 
    3000    323.55213    167.68706            0    1427.2554    12.678946    22.423675    14.188143    19.296844    34.598373    9.5311032    12.612127     22.30075    14.235163 
    3200    321.92799    158.25411            0    1411.4998    12.678088    22.423957    14.188005    19.211015    34.626679    9.5173174    12.612127     22.30075    14.235163 
    3400    309.08537    146.68537            0    1349.9355    12.677297    22.424169    14.187859    19.131881    34.647857    9.5027533    12.612127     22.30075    14.235163 
    3600    306.98501    131.92328            0    1326.9969    12.676583    22.424248    14.187705    19.060507    34.655772    9.4872971    12.612127     22.30075    14.235163 
    3800    309.68044    132.76798            0    1338.3347    12.675963    22.424177    14.187525    18.998427    34.648597    9.4692825    12.612127     22.30075    14.235163 
    4000    325.89136    155.73117            0     1424.406    12.675454    22.423973    14.187296    18.947476    34.628248    9.4464268    12.612127     22.30075    14.235163 
    4200    318.61166     184.4056            0     1424.741    12.675018    22.423694    14.187016    18.903861    34.600334    9.4183534    12.612127     22.30075    14.235163 
    4400    310.17647    202.98629            0     1410.484    12.674603    22.423482    14.186699    18.862422    34.579111    9.3867019    12.612127     22.30075    14.235163 
    4600     313.8696    204.96347            0    1426.8383    12.674159     22.42346    14.186395    18.817932    34.576865    9.3563032    12.612127     22.30075    14.235163 
    4800     318.1496    200.31275            0    1438.8494    12.673626    22.423623    14.186151    18.764622    34.593244    9.3318827    12.612127     22.30075    14.235163 
    5000    312.86733    189.17183            0    1407.1449    12.672983    22.423886    14.185965    18.700347    34.619566    9.3132179    12.612127     22.30075    14.235163 
    5200    301.36298    165.39198            0    1338.5794    12.672245    22.424186    14.185783     18.62645    34.649497    9.2950515    12.612127     22.30075    14.235163 
    5400    322.35493    132.25919            0    1387.1669    12.671468    22.424483    14.185561    18.548711    34.679298    9.2728009    12.612127     22.30075    14.235163 
    5600    310.44585    114.95306            0    1323.4995    12.670702    22.424723    14.185291    18.472102    34.703232    9.2458104    12.612127     22.30075    14.235163 
    5800    315.46386    124.51328            0    1352.5945    12.669947    22.424859    14.185008    18.396613    34.716873    9.2174744    12.612127     22.30075    14.235163 
    6000    316.18961    151.72392            0    1382.6304    12.669219    22.424847    14.184747    18.323736    34.715647    9.1913601    12.612127     22.30075    14.235163 
    6200    308.13474    184.42811            0    1383.9775    12.668544    22.424739    14.184498    18.256238    34.704908    9.1664853    12.612127     22.30075    14.235163 
    6400    315.33787    207.25545            0    1434.8462    12.667936    22.424648    14.184246    18.195423    34.695735    9.1413269    12.612127     22.30075    14.235163 
    6600     308.6028     214.3419            0    1415.7134    12.667334    22.424582     14.18403    18.135171    34.689191    9.1196484    12.612127     22.30075    14.235163 
    6800    315.38931     210.7151            0    1438.5061    12.666622    22.424506    14.183886    18.063925    34.681583     9.105255    12.612127     22.30075    14.235163 
    7000    313.26623    206.55513            0    1426.0811    12.665733     22.42445    14.183799    17.975005    34.675947    9.0965689    12.612127     22.30075    14.235163 
    7200     305.3057    211.41929            0    1399.9554    12.664702    22.424461    14.183725     17.87188    34.677083    9.0891833    12.612127     22.30075    14.235163 
    7400    314.27476    224.29915            0    1447.7513    12.663618     22.42449    14.183655    17.763436    34.679941    9.0822052    12.612127     22.30075    14.235163 
    7600    308.71142     229.5833            0    1431.3777    12.662531    22.424489    14.183624    17.654626    34.679838     9.079078    12.612127     22.30075    14.235163 
    7800    320.09651    228.01689            0    1474.1327    12.661403    22.424479    14.183629    17.541834    34.678887    9.0795685    12.612127     22.30075    14.235163 
    8000    314.49511    230.10587            0    1454.4158    12.660201    22.424533     14.18365    17.421534    34.684289    9.0816576    12.612127     22.30075    14.235163 
    8200    312.43611    247.21045            0    1463.5048    12.658846    22.424597    14.183679    17.286034    34.690674    9.0845209    12.612127     22.30075    14.235163 
    8400    316.55859    255.40266            0    1487.7456    12.657265    22.424494    14.183686    17.127827    34.680379    9.0852918    12.612127     22.30075    14.235163 
    8600    313.27176    241.11806            0    1460.6656    12.655453    22.424094    14.183676    16.946534    34.640363    9.0842375    12.612127     22.30075    14.235163 
    8800    311.06991     217.9418            0    1428.9177    12.653485    22.423387    14.183706    16.749717    34.569594    9.0872938    12.612127     22.30075    14.235163 
    9000    311.70492     207.1065            0    1420.5544    12.651478    22.422526    14.183787    16.548942    34.483494    9.0953977    12.612127     22.30075    14.235163 
    9200    315.83267    207.41135            0    1436.9284    12.649517    22.421672    14.183891      16.3527    34.398061    9.1058061    12.612127     22.30075    14.235163 
    9400    309.11217    205.19366            0    1408.5482    12.647611     22.42098    14.184016    16.162018    34.328773    9.1182903    12.612127     22.30075    14.235163 
    9600     314.3717    202.95508            0    1426.7846      12.6457    22.420567    14.184166    15.970833    34.287526    9.1332871    12.612127     22.30075    14.235163 
    9800    314.82587    220.08647            0     1445.684    12.643709    22.420433    14.184309    15.771712    34.274129    9.1475604    12.612127     22.30075    14.235163 
   10000    294.06313    237.08271            0    1381.8522    12.641623    22.420532    14.184415    15.563036    34.284019    9.1581522    12.612127     22.30075    14.235163 
   10200    314.05411    230.18174            0    1452.7749    12.639403    22.420691     14.18449    15.340898    34.299894    9.1656582    12.612127     22.30075    14.235163 
   10400    314.40407    205.15997            0    1429.1155    12.636988     22.42066    14.184595    15.099254    34.296747    9.1762091    12.612127     22.30075    14.235163 
   10600    311.13445    206.48199            0    1417.7091    12.634381    22.420296    14.184764     14.83847    34.260346    9.1930739    12.612127     22.30075    14.235163 
   10800    313.42861    249.19107            0    1469.3492     12.63156    22.419666    14.184949    14.556316    34.197342    9.2115703    12.612127     22.30075    14.235163 
   11000    311.06101    288.22816            0    1499.1694    12.628688    22.418935    14.185071    14.268995     34.12417    9.2238407    12.612127     22.30075    14.235163 
   11200    327.78922    299.69076            0    1575.7538    12.626047    22.418257    14.185094    14.004749    34.056429    9.2260932    12.612127     22.30075    14.235163 
   11400    314.38472    286.06439            0    1509.9446    12.623789    22.417768    14.185048     13.77884    34.007518    9.2215199    12.612127     22.30075    14.235163 
   11600    311.37074    318.43364            0    1530.5806    12.621904     22.41763    14.184978    13.590222    33.993659    9.2145441    12.612127     22.30075    14.235163 
   11800    298.28324    366.94612            0    1528.1443    12.620195    22.418014    14.184896    13.419277    34.032049     9.206283    12.612127     22.30075    14.235163 
   12000     319.8969    365.60013            0    1610.9389    12.618566    22.418944    14.184842    13.256352     34.12511    9.2009505    12.612127     22.30075    14.235163 
   12200    309.25963     342.8746            0    1546.8031     12.61705    22.420172    14.184826    13.104704    34.247969    9.1992805    12.612127     22.30075    14.235163 
   12400    320.14681    333.78361            0    1580.0953    12.615713    22.421318    14.184841    12.970935    34.362649    9.2008034    12.612127     22.30075    14.235163 
   12600    303.46406    329.59062            0    1510.9574    12.614555    22.422058    14.184882    12.855105     34.43666    9.2049402    12.612127     22.30075    14.235163 
   12800     327.1383    324.08522            0    1597.6143     12.61351     22.42235     14.18491    12.750515    34.465851    9.2076718    12.612127     22.30075    14.235163 
   13000    311.00483    310.30403            0    1521.0265    12.612557    22.422492    14.184881    12.655165    34.480064    9.2048368    12.612127     22.30075    14.235163 
   13200    307.19653    273.61937            0    1469.5164    12.611646    22.422856    14.184799    12.564008    34.516497    9.1966142    12.612127     22.30075    14.235163 
   13400    313.67223    234.46757            0    1455.5741    12.610795    22.423619    14.184698     12.47891    34.592835    9.1864932    12.612127     22.30075    14.235163 
   13600    291.65821    229.80791            0    1365.2152    12.610092    22.424681    14.184599    12.408598    34.699011    9.1765722    12.612127     22.30075    14.235163 
   13800    323.77282    244.92135            0    1505.3488    12.609584    22.425804    14.184501    12.357763    34.811378    9.1668232    12.612127     22.30075    14.235163 
   14000    309.36988    236.26475            0    1440.6225    12.609186    22.426787    14.184389     12.31793    34.909753    9.1555495    12.612127     22.30075    14.235163 
   14200     327.8896    211.57923            0    1488.0331     12.60883     22.42754    14.184236     12.28234    34.985125    9.1403198    12.612127     22.30075    14.235163 
   14400    312.25309    216.29571            0    1431.8776    12.608379     22.42803    14.184068    12.237165    35.034092    9.1234632    12.612127     22.30075    14.235163 
   14600    310.19343    281.07333            0    1488.6371    12.607586    22.428142    14.183931     12.15789     35.04531    9.1097981    12.612127     22.30075    14.235163 
   14800    310.27983     342.2738            0    1550.1739    12.606374    22.427756    14.183824    12.036605    35.006658    9.0990424    12.612127     22.30075    14.235163 
   15000    311.87441    360.23963            0    1574.3474    12.604954    22.426935    14.183692    11.894574    34.924588    9.0858458    12.612127     22.30075    14.235163 
   15200    315.83802    349.88344            0    1579.4212     12.60361    22.425983    14.183466    11.760103    34.829325     9.063269    12.612127     22.30075    14.235163 
   15400    296.82035    344.01281            0     1499.516    12.602528    22.425123    14.183144    11.651851    34.743302    9.0310115    12.612127     22.30075    14.235163 
   15600    321.64428     361.4986            0    1613.6398    12.601619    22.424348    14.182757     11.56094    34.665772    8.9923022    12.612127     22.30075    14.235163 
   15800    320.25866    365.27395            0     1612.021    12.600689    22.423382    14.182387    11.467917     34.56915    8.9552595    12.612127     22.30075    14.235163 
   16000     311.7085    350.05595            0    1563.5178    12.599766    22.421996    14.182111    11.375549    34.430489     8.927722    12.612127     22.30075    14.235163 
   16200    302.74658    315.38717            0    1493.9608     12.59898    22.420063    14.181846    11.296908    34.237038    8.9011762    12.612127     22.30075    14.235163 
   16400    317.55653    298.75744            0    1534.9853    12.598306    22.417611     14.18153    11.229448    33.991791    8.8695303    12.612127     22.30075    14.235163 
   16600    299.62486    339.62883            0    1506.0498    12.597569    22.414847    14.181213    11.155701    33.715281     8.837875    12.612127     22.30075    14.235163 
   16800     314.3046    396.80226            0    1620.3706    12.596644     22.41207    14.180865     11.06317    33.437406    8.8030154    12.612127     22.30075    14.235163 
   17000    306.26772    425.11353            0    1617.3948    12.595507    22.409599    14.180495    10.949495     33.19018    8.7660162    12.612127     22.30075    14.235163 
   17200    319.54448    424.34535            0    1668.3122    12.594302    22.407582    14.180131    10.828934    32.988442    8.7295978    12.612127     22.30075    14.235163 
   17400    309.02522    385.68985            0    1588.7059    12.593195    22.406047    14.179759    10.718206    32.834911     8.692412    12.612127     22.30075    14.235163 
   17600    319.21107    299.39405            0    1542.0629    12.592282    22.404902    14.179379    10.626843    32.720335    8.6543655    12.612127     22.30075    14.235163 
   17800    301.66709    200.54925            0    1374.9205     12.59166    22.404028    14.179005     10.56464    32.632885    8.6169626    12.612127     22.30075    14.235163 
   18000    307.31423    139.98099            0    1336.3362    12.591397    22.403338    14.178608    10.538284    32.563911    8.5772309    12.612127     22.30075    14.235163 
   18200    320.13879    148.01363            0    1394.2941    12.591466     22.40277    14.178155    10.545185    32.507024    8.5319561    12.612127     22.30075    14.235163 
   18400    313.21909    183.29694            0    1402.6394    12.591811    22.402306    14.177648    10.579681    32.460614    8.4812434    12.612127     22.30075    14.235163 
   18600    308.89425    236.15916            0    1438.6653    12.592425    22.401882    14.177141    10.641079    32.418177    8.4304666    12.612127     22.30075    14.235163 
   18800    320.09425    321.20425            0    1567.3113    12.593326    22.401465    14.176654    10.731237    32.376512    8.3818085    12.612127     22.30075    14.235163 
   19000    312.30572    445.19167            0    1660.9784    12.594522    22.401223     14.17609     10.85095    32.352281    8.3252985    12.612127     22.30075    14.235163 
   19200    320.54018    548.84699            0      1796.69    12.595856    22.401387    14.175352    10.984343     32.36865    8.2515038    12.612127     22.30075    14.235163 
   19400    310.10764    545.04541            0    1752.2752      12.5972    22.401915    14.174487    11.118838    32.421545    8.1649588    12.612127     22.30075    14.235163 
   19600    320.90858    462.25978            0     1711.537    12.598635    22.402481    14.173593    11.262339    32.478091    8.0755231    12.612127     22.30075    14.235163 
   19800    311.37914    403.84677            0    1616.0264     12.60024    22.402797    14.172737    11.422941    32.509727    7.9898932    12.612127     22.30075    14.235163 
   20000    307.39198    351.21798            0    1547.8759    12.601922    22.402797    14.171946    11.591275    32.509697     7.910786    12.612127     22.30075    14.235163 
   20200    317.24206    292.44681            0    1527.4505    12.603615    22.402562     14.17126    11.760597    32.486224    7.8421528    12.612127     22.30075    14.235163 
   20400    319.32171    277.10717            0    1520.2068    12.605387    22.402244    14.170617    11.937825    32.454449    7.7778205    12.612127     22.30075    14.235163 
   20600    320.17819    303.78821            0     1550.222     12.60715    22.401973    14.169933    12.114224    32.427275    7.7093561    12.612127     22.30075    14.235163 
   20800    312.10107    375.90373            0    1590.8938    12.608625    22.401659     14.16922    12.261799    32.395852     7.638069    12.612127     22.30075    14.235163 
   21000    315.25839    469.06403            0    1696.3454    12.609505    22.401089    14.168498    12.349838    32.338909    7.5657855    12.612127     22.30075    14.235163 
   21200    306.21434    496.33664            0    1688.4101    12.609705    22.400048    14.167781    12.369809    32.234726    7.4940708    12.612127     22.30075    14.235163 
   21400     318.0172    467.98665            0    1706.0079    12.609361     22.39853    14.167077    12.335478    32.082853    7.4236949    12.612127     22.30075    14.235163 
   21600    309.10139    444.37132            0    1647.6838    12.608737     22.39683    14.166322    12.273031    31.912831    7.3481732    12.612127     22.30075    14.235163 
   21800    331.89605    408.79997            0    1700.8507    12.608016    22.395327    14.165518    12.200862    31.762383     7.267708    12.612127     22.30075    14.235163 
   22000    308.34331    347.61443            0    1547.9758    12.607274    22.394157    14.164751    12.126623    31.645381    7.1909232    12.612127     22.30075    14.235163 
   22200    317.53295    281.75837            0    1517.8944    12.606531    22.393225    14.164067    12.052321    31.552107    7.1225413    12.612127     22.30075    14.235163 
   22400    308.89447    245.05992            0    1447.5669    12.605894    22.392454    14.163407    11.988567       31.475    7.0565452    12.612127     22.30075    14.235163 
   22600    321.11877    253.26573            0    1503.3612     12.60548    22.391853    14.162698    11.947155     31.41491    6.9855638    12.612127     22.30075    14.235163 
   22800    314.04916    290.69411            0     1513.268    12.605063     22.39134    14.161966    11.905439    31.363545    6.9123772    12.612127     22.30075    14.235163 
   23000    309.19427    330.17705            0    1533.8512    12.604416    22.390753    14.161188    11.840721    31.304842    6.8345236    12.612127     22.30075    14.235163 
   23200     313.9165    357.38945            0    1579.4469    12.603374    22.389856    14.160342    11.736534    31.215112    6.7499068    12.612127     22.30075    14.235163 
   23400    326.27317    394.05796            0    1664.2191     12.60195    22.388479    14.159492    11.594013    31.077335    6.6648753    12.612127     22.30075    14.235163 
   23600    311.38749    443.60197            0    1655.8141    12.600392    22.386603    14.158697     11.43815    30.889631    6.5853496    12.612127     22.30075    14.235163 
   23800    317.24787    477.17114            0    1712.1974    12.599099    22.384508    14.157993    11.308829    30.680088    6.5148822    12.612127     22.30075    14.235163 
   24000    312.18518    504.17387            0    1719.4914    12.598387    22.382749    14.157412    11.237544    30.504141    6.4567414    12.612127     22.30075    14.235163 
   24200    323.97383     502.4409            0    1763.6509    12.598423    22.381898    14.156936    11.241134    30.418928    6.4090881    12.612127     22.30075    14.235163 
   24400    316.33012    507.05905            0    1738.5126    12.599201    22.382202    14.156419    11.318986    30.449358    6.3574185    12.612127     22.30075    14.235163 
   24600    304.07949     538.2839            0    1722.0465    12.600646    22.383511    14.155855    11.463552    30.580327    6.3009403    12.612127     22.30075    14.235163 
   24800    318.94427    537.73483            0    1779.3651    12.602595    22.385465    14.155274    11.658578    30.775834    6.2428914    12.612127     22.30075    14.235163 
   25000     300.0216    489.36022            0    1657.3257    12.604769    22.387697    14.154585    11.876032    30.999073    6.1739794    12.612127     22.30075    14.235163 
   25200    314.69792    423.85164            0    1648.9511    12.606861    22.389843    14.153812    12.085334    31.213804    6.0966237    12.612127     22.30075    14.235163 
   25400    319.70456    345.58847            0    1590.1785    12.608585    22.391587    14.153061    12.257812    31.388319    6.0214887    12.612127     22.30075    14.235163 
   25600    306.04331    309.63266            0    1501.0403    12.609902    22.392715    14.152329    12.389521    31.501124    5.9481949    12.612127     22.30075    14.235163 
   25800    313.98984    319.45536            0    1541.7983      12.6109    22.393311    14.151541     12.48941     31.56075    5.8694478    12.612127     22.30075    14.235163 
   26000    316.05698    334.98322            0    1565.3734      12.6116    22.393547      14.1507     12.55944    31.584385    5.7852454    12.612127     22.30075    14.235163 
   26200    310.40206    404.56742            0    1612.9434     12.61209    22.393609      14.1499    12.608429    31.590586    5.7052134    12.612127     22.30075    14.235163 
   26400    323.47087    529.81743            0    1789.0695     12.61229    22.393734    14.149095    12.628489    31.603106    5.6246659    12.612127     22.30075    14.235163 
   26600    304.12118    598.03291            0    1781.9578    12.611886    22.394126    14.148197    12.588076    31.642232    5.5348246    12.612127     22.30075    14.235163 
   26800    327.83891    566.68009            0    1842.9366    12.610739    22.394793    14.147273     12.47326    31.708973    5.4424161    12.612127     22.30075    14.235163 
   27000    291.82118    519.73238            0    1655.7741    12.608924     22.39537    14.146399    12.291741    31.766728    5.3549456    12.612127     22.30075    14.235163 
   27200    317.08245    495.18312            0    1729.5654    12.606567    22.395302    14.145583    12.055911    31.759878    5.2733364    12.612127     22.30075    14.235163 
   27400    301.61522    434.82839            0    1608.9977    12.603894    22.394301    14.144865    11.788557    31.659779    5.2014902    12.612127     22.30075    14.235163 
   27600    317.79099    351.94847            0    1589.0891    12.601245    22.392394    14.144264    11.523533    31.469047    5.1413629    12.612127     22.30075    14.235163 
   27800    315.62583    332.74936            0    1561.4611    12.598927    22.389718    14.143685     11.29161    31.201302     5.083442    12.612127     22.30075    14.235163 
   28000    322.63794    376.03291            0    1632.0424    12.596948    22.386324     14.14312    11.093622    30.861729    5.0269407    12.612127     22.30075    14.235163 
   28200     319.3641    400.44073            0    1643.7054    12.595199    22.382488    14.142583    10.918661     30.47799    4.9732396    12.612127     22.30075    14.235163 
   28400    318.69152    445.74795            0    1686.3942     12.59371    22.378659    14.142027    10.769656    30.094896    4.9176329    12.612127     22.30075    14.235163 
   28600    309.55516     534.9543            0    1740.0333    12.592411     22.37521    14.141444    10.639677    29.749903    4.8592516    12.612127     22.30075    14.235163 
   28800    322.87266    582.09412            0    1839.0173    12.591258    22.372461    14.140888    10.524395    29.474839     4.803664    12.612127     22.30075    14.235163 
   29000    314.42316     593.7036            0    1817.7334    12.590423    22.370601    14.140449    10.440832    29.288818    4.7596917    12.612127     22.30075    14.235163 
   29200    320.05691    564.33991            0    1810.3016    12.590192    22.369543    14.140081    10.417734    29.182941    4.7229067    12.612127     22.30075    14.235163 
   29400    315.09369    510.08499            0    1736.7252    12.590696    22.369072    14.139718    10.468188    29.135851    4.6865748    12.612127     22.30075    14.235163 
   29600    301.12165    434.46886            0    1606.7168    12.591817    22.369119    14.139399    10.580265     29.14051    4.6546547    12.612127     22.30075    14.235163 
   29800    316.75437    364.77529            0    1597.8804    12.593337    22.369702     14.13922    10.732385    29.198824    4.6368258    12.612127     22.30075    14.235163 
   30000    296.33515    394.11912            0    1547.7335    12.595152    22.370803    14.139036    10.913932     29.30896    4.6183559    12.612127     22.30075    14.235163 
   30200     324.7845    446.89818            0    1711.2641    12.597311     22.37243    14.138765    11.129908    29.471764    4.5913077    12.612127     22.30075    14.235163 
   30400    302.85652    463.87249            0    1642.8741    12.599751    22.374485    14.138459    11.374084    29.677371    4.5606075    12.612127     22.30075    14.235163 
   30600    315.00636    489.96432            0    1716.2645    12.602315    22.376745    14.138139    11.630529    29.903461    4.5286437    12.612127     22.30075    14.235163 
   30800    309.13952    535.78635            0    1739.2473    12.605103    22.379041    14.137875    11.909418    30.133133    4.5022755    12.612127     22.30075    14.235163 
   31000    302.87541     574.7222            0    1753.7974    12.608272    22.381409    14.137758    12.226531    30.370032    4.4904952    12.612127     22.30075    14.235163 
   31200    313.27775    589.85882            0    1809.4296    12.611709    22.383857    14.137761      12.5703    30.614991    4.4908382    12.612127     22.30075    14.235163 
   31400    308.65968    615.10115            0    1816.6941    12.615081    22.386369    14.137799    12.907696     30.86626    4.4946717    12.612127     22.30075    14.235163 
   31600    323.15178    651.81813            0    1909.8279    12.618076    22.388813    14.137843    13.207323    31.110736    4.4990162    12.612127     22.30075    14.235163 
   31800    312.17284    651.63673            0    1866.9062     12.62035    22.390794    14.137894    13.434828     31.30891    4.5041369    12.612127     22.30075    14.235163 
   32000    321.50702    631.44389            0    1883.0508    12.621642    22.392086     14.13797    13.564103    31.438231    4.5117785    12.612127     22.30075    14.235163 
   32200    305.49817    613.06521            0    1802.3506     12.62192    22.392931     14.13801    13.591863    31.522776    4.5157393    12.612127     22.30075    14.235163 
   32400     314.3512    560.19017            0    1783.9399    12.621458     22.39363    14.137992    13.545684    31.592612    4.5139368    12.612127     22.30075    14.235163 
   32600    307.86687    510.82468            0    1709.3313    12.620403    22.394207    14.137942     13.44013    31.650355    4.5089582    12.612127     22.30075    14.235163 
   32800    322.03445    506.13399            0    1759.7941    12.618754    22.394572    14.137855    13.275095    31.686882    4.5002188    12.612127     22.30075    14.235163 
   33000    294.35239    508.12833            0    1654.0239    12.616642    22.394738     14.13778    13.063803    31.703496    4.4927009    12.612127     22.30075    14.235163 
   33200    314.49118    523.15392            0    1747.4486    12.614313    22.395009     14.13773    12.830868    31.730642    4.4876879    12.612127     22.30075    14.235163 
   33400    300.01628     561.0469            0    1728.9916    12.612116    22.395548     14.13761    12.611035    31.784497    4.4756711    12.612127     22.30075    14.235163 
   33600    328.79474    597.30763            0    1877.2851    12.610081    22.396218    14.137462    12.407457    31.851559    4.4609639    12.612127     22.30075    14.235163 
   33800    309.30324    606.56561            0    1810.6639    12.607956    22.396851    14.137409    12.194876    31.914938    4.4555867    12.612127     22.30075    14.235163 
   34000    311.62228    572.70789            0    1785.8341    12.605691    22.397414    14.137373    11.968307    31.971238    4.4520001    12.612127     22.30075    14.235163 
   34200    289.78356    549.75205            0    1677.8615    12.603509    22.397945    14.137221    11.749992    32.024326     4.436799    12.612127     22.30075    14.235163 
   34400    323.33265    569.24792            0    1827.9619    12.601653    22.398425    14.137055    11.564331    32.072361    4.4201561    12.612127     22.30075    14.235163 
   34600    308.08663    600.96921            0    1800.3313    12.600211    22.398833    14.136981    11.420012    32.113163    4.4127988    12.612127     22.30075    14.235163 
   34800    313.58306    665.14308            0    1885.9025    12.599164    22.399344    14.136958    11.315355    32.164247    4.4104871    12.612127     22.30075    14.235163 
   35000    313.45285    733.81353            0     1954.066     12.59849     22.40017    14.136936    11.247895    32.246977    4.4082788    12.612127     22.30075    14.235163 
   35200    311.69916    827.74802            0    2041.1735    12.598223    22.401391    14.136863    11.221134    32.369071    4.4009618    12.612127     22.30075    14.235163 
   35400    323.34794    891.57473            0    2150.3482    12.598408    22.403046    14.136757    11.239714    32.534675    4.3903503    12.612127     22.30075    14.235163 
   35600    311.63124     938.4944            0    2151.6555    12.599052    22.405253    14.136692    11.304134    32.755455    4.3839078    12.612127     22.30075    14.235163 
   35800    307.08995    963.94022            0    2159.4223    12.600079    22.408153    14.136736     11.40682     33.04556    4.3882902    12.612127     22.30075    14.235163 
   36000     316.7657    906.83306            0    2139.9823    12.601419     22.41166     14.13679    11.540884    33.396453    4.3936695    12.612127     22.30075    14.235163 
   36200    321.84747    756.11493            0    2009.0472    12.602947    22.415377    14.136741    11.693756    33.768271     4.388756    12.612127     22.30075    14.235163 
   36400    310.50996    541.56142            0    1750.3574    12.604663    22.418902    14.136507    11.865469    34.120873    4.3653991    12.612127     22.30075    14.235163 
   36600    317.46624    341.05202            0    1576.9284    12.606644    22.422133    14.136121    12.063663    34.444178    4.3268014    12.612127     22.30075    14.235163 
   36800     322.3559    191.33454            0    1446.2461    12.608845    22.425162    14.135739    12.283784    34.747218    4.2885766    12.612127     22.30075    14.235163 
   37000    303.28435    145.54581            0     1326.213    12.611135    22.427979    14.135478     12.51291    35.029013    4.2624776    12.612127     22.30075    14.235163 
   37200    315.17092    170.16642            0    1397.1073    12.613493    22.430419    14.135344    12.748776    35.273079    4.2490371    12.612127     22.30075    14.235163 
   37400    306.29738    257.08265            0    1449.4793    12.615984    22.432534    14.135286    12.998014    35.484663    4.2431756    12.612127     22.30075    14.235163 
   37600    321.58423    412.48404            0    1664.3915    12.618614    22.434252    14.135236     13.26113     35.65659    4.2382365    12.612127     22.30075    14.235163 
   37800    309.90939     630.6288            0    1837.0868    12.621222    22.435632    14.135088    13.522086     35.79465     4.223457    12.612127     22.30075    14.235163 
   38000    321.49995    846.73904            0    2098.3184    12.623407    22.436656    14.134851    13.740595    35.897112    4.1997472    12.612127     22.30075    14.235163 
   38200    313.61787    1016.2207            0    2237.1156     12.62503    22.437233    14.134558     13.90295     35.95481    4.1703526    12.612127     22.30075    14.235163 
   38400    303.00188    1058.6973            0    2238.2648    12.626296    22.437325    14.134168    14.029673    35.963966    4.1314199    12.612127     22.30075    14.235163 
   38600    308.26485    949.25138            0    2149.3073    12.627534    22.437002    14.133727    14.153492    35.931633    4.0872136    12.612127     22.30075    14.235163 
   38800    314.40959    783.25907            0    2007.2361    12.629227    22.436694    14.133218    14.322891    35.900866    4.0363622    12.612127     22.30075    14.235163 
   39000    315.65378    588.92296            0    1817.7435    12.631825    22.436632    14.132654    14.582757    35.894662    3.9798997    12.612127     22.30075    14.235163 
   39200    341.83641    374.39407            0     1705.142    12.635296    22.436636    14.132042    14.930057    35.895042    3.9186627    12.612127     22.30075    14.235163 
   39400    311.82362    170.04048            0    1383.9505    12.638973    22.436739    14.131337    15.297851    35.905372       3.8482    12.612127     22.30075    14.235163 
   39600    308.10266    84.439375            0    1283.8639    12.642181    22.437082    14.130571     15.61883    35.939687    3.7715347    12.612127     22.30075    14.235163 
   39800    322.31434    178.38854            0    1433.1383    12.645045    22.437396    14.129771    15.905293    35.971076     3.691461    12.612127     22.30075    14.235163 
   40000    306.78176    305.74115            0    1500.0235     12.64761    22.437506    14.128935    16.161962    35.982068    3.6078707    12.612127     22.30075    14.235163 
   40200    311.65315    419.23098            0    1632.4773    12.649633    22.437483    14.128017    16.364319     35.97979    3.5160081    12.612127     22.30075    14.235163 
   40400    312.31366    627.92179            0    1843.7395    12.650745    22.437455    14.126963    16.475556     35.97697    3.4105332    12.612127     22.30075    14.235163 
   40600    307.72419     884.6968            0    2082.6479    12.650749    22.437514    14.125731    16.476004    35.982934    3.2872879    12.612127     22.30075    14.235163 
   40800    310.58663    914.29507            0    2123.3895    12.649782    22.437742    14.124432     16.37921    36.005755    3.1574062    12.612127     22.30075    14.235163 
   41000    321.65852    782.91117            0    2035.1078    12.648234    22.438165    14.123213    16.224334    36.048066    3.0353786    12.612127     22.30075    14.235163 
   41200    312.97626    577.67036            0    1796.0675    12.646404    22.438702    14.122158     16.04125    36.101765    2.9298977    12.612127     22.30075    14.235163 
   41400    305.42659    421.26439            0    1610.2711     12.64416    22.439429    14.121269    15.816817    36.174473    2.8409721    12.612127     22.30075    14.235163 
   41600    320.55242    336.95594            0    1584.8466     12.64117    22.440198    14.120464    15.517705    36.251429    2.7603549    12.612127     22.30075    14.235163 
   41800     306.1852    254.01818            0    1445.9782    12.637586     22.44081    14.119694    15.159104    36.312658    2.6833966    12.612127     22.30075    14.235163 
   42000    321.77694    215.04446            0    1467.7021    12.633784    22.441233    14.118929    14.778729    36.354981    2.6068762    12.612127     22.30075    14.235163 
   42200    321.15586    330.61957            0    1580.8594      12.6301     22.44146    14.118199    14.410188    36.377693    2.5337909    12.612127     22.30075    14.235163 
   42400    317.57774    579.76365            0    1816.0741    12.626493    22.441438    14.117511    14.049408    36.375469    2.4649636    12.612127     22.30075    14.235163 
   42600    314.06955    798.15079            0    2020.8041    12.623107    22.441008    14.116819    13.710598    36.332448    2.3957245    12.612127     22.30075    14.235163 
   42800    302.51643    917.71652            0    2095.3942    12.620756    22.440103    14.116104    13.475443    36.241859    2.3241875    12.612127     22.30075    14.235163 
   43000    314.09075    845.62352            0    2068.3593    12.619911     22.43868    14.115406    13.390916    36.099552    2.2544151    12.612127     22.30075    14.235163 
   43200    309.95909    709.44425            0    1916.0957    12.620208    22.436975    14.114847    13.420629    35.928997    2.1984167    12.612127     22.30075    14.235163 
   43400    322.17503    598.43823            0    1852.6456    12.621014    22.435311    14.114438    13.501185    35.762553    2.1575918    12.612127     22.30075    14.235163 
   43600    306.58171    442.00112            0    1635.5047    12.621984    22.433323    14.114156    13.598234    35.563619      2.12932    12.612127     22.30075    14.235163 
   43800    311.95259    299.32312            0    1513.7352    12.623174    22.430572    14.113913    13.717325    35.288413    2.1049897    12.612127     22.30075    14.235163 
   44000    316.27477    222.47622            0    1453.7143    12.624473    22.427201    14.113693    13.847296    34.951195    2.0830605    12.612127     22.30075    14.235163 
   44200    311.25236    236.15096            0    1447.8371    12.625638     22.42347    14.113514    13.963862    34.577909    2.0650817    12.612127     22.30075    14.235163 
   44400    310.46982     327.3257            0    1535.9654    12.626475    22.419492    14.113364    14.047586    34.179987    2.0501293    12.612127     22.30075    14.235163 
   44600      312.293    474.42919            0    1690.1665    12.627133    22.415285    14.113318     14.11339    33.759048    2.0454757    12.612127     22.30075    14.235163 
   44800    317.35558    606.74982            0    1842.1954    12.627314    22.410838    14.113348    14.131453    33.314205    2.0484719    12.612127     22.30075    14.235163 
   45000     309.7402    732.84451            0    1938.6439    12.626232    22.405978    14.113356    14.023211     32.82796    2.0493327    12.612127     22.30075    14.235163 
   45200    308.77336     798.3111            0    2000.3466    12.623369    22.400712    14.113327    13.736846    32.301165    2.0463715    12.612127     22.30075    14.235163 
   45400    319.49572    771.75288            0    2015.5299    12.618572    22.395357    14.113315    13.256962     31.76543    2.0452069    12.612127     22.30075    14.235163 
   45600    305.81081    689.41981            0    1879.9223     12.61227    22.390039     14.11332    12.626493    31.233394    2.0457405    12.612127     22.30075    14.235163 
   45800    321.86789    585.59203            0    1838.6038    12.605209    22.384877    14.113207     11.92009    30.716975    2.0344054    12.612127     22.30075    14.235163 
   46000    312.34898    478.35391            0    1694.3091    12.598184    22.380197    14.112982    11.217296    30.248814      2.01186    12.612127     22.30075    14.235163 
   46200    310.38456    378.55453            0    1586.8624    12.591809    22.376121    14.112706    10.579516    29.840987    1.9842733    12.612127     22.30075    14.235163 
   46400    316.15361    359.39897            0    1590.1653    12.586112    22.372724    14.112467    10.009572      29.5012     1.960378    12.612127     22.30075    14.235163 
   46600    311.22256    418.51838            0    1630.0885    12.581032    22.370111    14.112318    9.5013936    29.239732    1.9454794    12.612127     22.30075    14.235163 
   46800    323.33245    507.52471            0    1766.2379    12.576735    22.368414    14.112169    9.0714367    29.070024    1.9305228    12.612127     22.30075    14.235163 
   47000    319.27176    557.03239            0    1799.9375    12.573291    22.367751    14.111859     8.726922    29.003652    1.8995867    12.612127     22.30075    14.235163 
   47200    308.51532    633.70296            0     1834.734    12.570411    22.367912    14.111234    8.4387729    29.019762     1.836987    12.612127     22.30075    14.235163 
   47400    323.04548    715.99801            0     1973.594    12.567893    22.368762    14.110372    8.1868885     29.10485    1.7507956    12.612127     22.30075    14.235163 
   47600    307.48396    745.38532            0    1942.4013    12.565964    22.370135    14.109405    7.9939372    29.242196    1.6540395    12.612127     22.30075    14.235163 
   47800    320.31697     740.7651            0    1987.7392    12.565165    22.371687    14.108403    7.9139802    29.397441    1.5537604    12.612127     22.30075    14.235163 
   48000    305.99313    626.30566            0    1817.5179    12.565508    22.373092    14.107461    7.9483099    29.537979    1.4595863    12.612127     22.30075    14.235163 
   48200    314.11889    507.48197            0    1730.3273    12.566253    22.374261    14.106583    8.0228464    29.654902    1.3717352    12.612127     22.30075    14.235163 
   48400    308.07303    385.08662            0    1584.3958    12.566753    22.375223    14.105677    8.0728131    29.751185    1.2811262    12.612127     22.30075    14.235163 
   48600    313.94494    395.55957            0    1617.7277    12.566887    22.375947    14.104645    8.0862081    29.823618     1.177835    12.612127     22.30075    14.235163 
   48800    295.94198    471.88624            0      1623.97    12.566641    22.376495    14.103483     8.061653    29.878445     1.061615    12.612127     22.30075    14.235163 
   49000    328.01234    529.80484            0    1806.7365    12.565708    22.376505     14.10228    7.9682833    29.879437   0.94122887    12.612127     22.30075    14.235163 
   49200    309.89157    599.84658            0    1806.2352    12.563791    22.375436    14.101119    7.7765006    29.772447   0.82505229    12.612127     22.30075    14.235163 
   49400    322.27182    691.15595            0    1945.7401     12.56107    22.373224    14.099889    7.5043494     29.55115   0.70198926    12.612127     22.30075    14.235163 
   49600     311.0047    770.88751            0    1981.6095    12.558272    22.370168    14.098535     7.224355    29.245438    0.5665996    12.612127     22.30075    14.235163 
   49800     318.6934    860.82908            0    2101.4827    12.555982    22.366196    14.097047    6.9952938    28.848113   0.41772262    12.612127     22.30075    14.235163 
   50000    315.14429    861.28877            0    2088.1259    12.554123    22.361254    14.095421    6.8092732    28.353745   0.25505756    12.612127     22.30075    14.235163 
   50200    310.28189    787.85533            0    1995.7635    12.552293    22.355666    14.093734    6.6262485    27.794643  0.086308866    12.612127     22.30075    14.235163 
   50400    317.64763    762.42753            0      1999.01    12.550255    22.350047    14.092178    6.4223888    27.232537 -0.069351905    12.612127     22.30075    14.235163 
   50600     311.8116    797.25149            0    2011.1147    12.548319    22.345185    14.090794    6.2286684    26.746106  -0.20785782    12.612127     22.30075    14.235163 
   50800    326.85157    684.67926            0    1957.0921    12.546631     22.34166    14.089605    6.0598266    26.393433  -0.32675728    12.612127     22.30075    14.235163 
   51000    321.00824    519.17888            0     1768.844    12.545304    22.339649    14.088593    5.9270701    26.192288  -0.42800218    12.612127     22.30075    14.235163 
   51200    313.34068    434.08095            0    1653.8968    12.544431    22.339096    14.087713    5.8397479    26.136976  -0.51609881    12.612127     22.30075    14.235163 
   51400    302.88723    444.34676            0     1623.468    12.544114    22.340213    14.087044    5.8080154     26.24875  -0.58302642    12.612127     22.30075    14.235163 
   51600    320.43297    530.74702            0    1778.1727    12.543431    22.342748    14.086648     5.739624    26.502294  -0.62266886    12.612127     22.30075    14.235163 
   51800    322.04117    557.96345            0    1811.6497    12.541772    22.345904    14.086474    5.5736565    26.818059  -0.64003449    12.612127     22.30075    14.235163 
   52000    313.13098    647.83621            0    1866.8357    12.539414    22.349531    14.086363    5.3378228    27.180887  -0.65113492    12.612127     22.30075    14.235163 
   52200    314.63386    790.01168            0    2014.8618    12.536763    22.353815    14.086236    5.0726223     27.60948  -0.66388509    12.612127     22.30075    14.235163 
   52400    312.30912    881.75594            0    2097.5559    12.533498    22.358732    14.086073    4.7459967    28.101425   -0.6801379    12.612127     22.30075    14.235163 
   52600    301.97004    909.55695            0    2085.1076    12.529784    22.363957    14.085655     4.374423    28.624098  -0.72194725    12.612127     22.30075    14.235163 
   52800    299.31028    943.92176            0    2109.1181    12.526279    22.369025    14.084833    4.0237236    29.131099  -0.80416294    12.612127     22.30075    14.235163 
   53000    314.05896    929.09465            0    2151.7067    12.523041    22.372766    14.083734    3.6998462     29.50534  -0.91418367    12.612127     22.30075    14.235163 
   53200    318.12815    728.13992            0    1966.5931    12.519439     22.37392     14.08258    3.3394586    29.620798   -1.0295641    12.612127     22.30075    14.235163 
   53400    309.33513    546.48294            0    1750.7054     12.51547    22.372552    14.081519    2.9423782    29.483955     -1.13572    12.612127     22.30075    14.235163 
   53600     313.8334     465.8279            0    1687.5618    12.512036     22.36955    14.080518    2.5988872    29.183615   -1.2358308    12.612127     22.30075    14.235163 
   53800    324.29871     374.9228            0    1637.3975    12.509607    22.365686    14.079516    2.3558568    28.797126   -1.3360948    12.612127     22.30075    14.235163 
   54000    306.34176    376.09795            0    1568.6674    12.508182    22.361362    14.078573    2.2132783    28.364534   -1.4304837    12.612127     22.30075    14.235163 
   54200    322.38603    455.88739            0    1710.9162    12.507791    22.356805    14.077741    2.1742195    27.908623   -1.5136625    12.612127     22.30075    14.235163 
   54400    297.02769     686.2715            0    1842.5818    12.508389    22.352195    14.076929    2.2340289    27.447453   -1.5949657    12.612127     22.30075    14.235163 
   54600    305.24822    889.97836            0    2078.2907    12.509579    22.347797    14.075903    2.3530202    27.007443   -1.6976098    12.612127     22.30075    14.235163 
   54800    309.18572     1057.565            0    2261.2058    12.510656    22.343984    14.074573    2.4608148    26.625937   -1.8305978    12.612127     22.30075    14.235163 
   55000    314.15802     1172.043            0    2395.0407    12.510714    22.341156    14.073183    2.4665764    26.343082   -1.9696627    12.612127     22.30075    14.235163 
   55200     300.3474     1159.488            0    2328.7218    12.509158    22.339926    14.071977     2.310904    26.219955   -2.0903705    12.612127     22.30075    14.235163 
   55400    316.06699    1062.1546            0    2292.5838    12.506112    22.340975    14.070805    2.0062133    26.324898   -2.2075455    12.612127     22.30075    14.235163 
   55600    311.56571    909.70452            0    2122.6105    12.502143    22.344051    14.069501    1.6091715    26.632704   -2.3380316    12.612127     22.30075    14.235163 
   55800    325.22579    750.64454            0    2016.7284    12.497975    22.348145     14.06813     1.192187    27.042207   -2.4751686    12.612127     22.30075    14.235163 
   56000    314.74841    661.00561            0    1886.3016    12.494104    22.352748    14.066739   0.80491994    27.502746   -2.6143805    12.612127     22.30075    14.235163 
   56200    315.79385    673.56243            0    1902.9283    12.490491    22.357773    14.065294   0.44349171    28.005494   -2.7588838    12.612127     22.30075    14.235163 
   56400    309.55253    766.80779            0    1971.8766    12.487242    22.362924    14.063811   0.11841055    28.520725   -2.9072537    12.612127     22.30075    14.235163 
   56600    309.05693    798.74677            0    2001.8862    12.484869    22.367426    14.062381  -0.11900119    28.971152    -3.050369    12.612127     22.30075    14.235163 
   56800    328.76656    739.08281            0    2018.9506    12.483739    22.370694    14.061127  -0.23203807    29.298066   -3.1758358    12.612127     22.30075    14.235163 
   57000    298.78614    765.69569            0    1928.8516    12.483391    22.373012    14.060113  -0.26680549    29.529998   -3.2772047    12.612127     22.30075    14.235163 
   57200    320.16628    817.16168            0    2063.5491    12.483312    22.374759     14.05932  -0.27479557    29.704749   -3.3565982    12.612127     22.30075    14.235163 
   57400    309.24691    862.17225            0    2066.0513    12.483814    22.375788     14.05872  -0.22458197    29.807742   -3.4165451    12.612127     22.30075    14.235163 
   57600    322.61272    776.62586            0    2032.5371    12.485255    22.376006    14.058298 -0.080406375    29.829561   -3.4587821    12.612127     22.30075    14.235163 
   57800    304.30877    715.87571            0    1900.5308    12.487462    22.375751    14.057913   0.14040188    29.803977   -3.4972924    12.612127     22.30075    14.235163 
   58000    322.10806     708.0056            0    1961.9523    12.490104    22.375308    14.057381   0.40470572    29.759661    -3.550517    12.612127     22.30075    14.235163 
   58200     302.7236    655.85132            0    1834.3355    12.492778    22.374704    14.056697   0.67222474    29.699253   -3.6189773    12.612127     22.30075    14.235163 
   58400     316.0309    676.23039            0    1906.5191    12.495134    22.373902    14.055954   0.90789499    29.618979   -3.6933213    12.612127     22.30075    14.235163 
   58600    315.44721    675.85237            0    1903.8688     12.49718    22.372626    14.055261    1.1126268    29.491347   -3.7625981    12.612127     22.30075    14.235163 
   58800    303.63254    713.49552            0    1895.5181    12.498378    22.371131    14.054637    1.2324576    29.341797   -3.8250688    12.612127     22.30075    14.235163 
   59000    313.87737    817.70883            0    2039.6139      12.4978    22.369705    14.054036    1.1746169    29.199176   -3.8852284    12.612127     22.30075    14.235163 
   59200    317.73399    827.21611            0    2064.1348    12.495377     22.36896    14.053382   0.93227325    29.124604   -3.9506227    12.612127     22.30075    14.235163 
   59400    314.80057    837.96456            0    2063.4636    12.491994    22.369227    14.052606   0.59378131    29.151328   -4.0282725    12.612127     22.30075    14.235163 
   59600    314.88908    850.01138            0     2075.855    12.487807     22.37016    14.051707   0.17491011    29.244661    -4.118145    12.612127     22.30075    14.235163 
   59800    306.67418    779.32068            0    1973.1842    12.482868    22.371426    14.050825  -0.31917779    29.371318   -4.2064468    12.612127     22.30075    14.235163 
   60000    323.47358    877.47192            0    2136.7345    12.477828    22.372979    14.049948  -0.82342719    29.526723   -4.2941212    12.612127     22.30075    14.235163 
   60200     310.0307    1007.1436            0    2214.0739    12.473267    22.374317    14.048946   -1.2796724      29.6605    -4.394385    12.612127     22.30075    14.235163 
   60400     312.0192    1035.5062            0    2250.1776    12.469694    22.375075    14.047953   -1.6370982     29.73635   -4.4937091    12.612127     22.30075    14.235163 
   60600    314.93862    975.86849            0     2201.905    12.467001     22.37529    14.047149   -1.9065846    29.757837   -4.5742163    12.612127     22.30075    14.235163 
   60800    299.61621    981.63851            0    2148.0258    12.464856    22.375402    14.046275    -2.121169    29.769127     -4.66157    12.612127     22.30075    14.235163 
   61000    316.87123    971.13232            0    2204.6924    12.463006    22.375463    14.045132   -2.3062296    29.775205   -4.7760134    12.612127     22.30075    14.235163 
   61200     310.1157    905.07748            0    2112.3387    12.461372     22.37528    14.043926   -2.4696373    29.756887   -4.8966051    12.612127     22.30075    14.235163 
   61400    323.69892    817.24454            0    2077.3843    12.460293    22.375006    14.042888   -2.5775754    29.729449   -5.0004582    12.612127     22.30075    14.235163 
   61600    305.58256    638.24807            0     1827.862    12.460056    22.374751    14.042057   -2.6013075    29.703948   -5.0836057    12.612127     22.30075    14.235163 
   61800    314.25834    551.67965            0    1775.0679    12.460718     22.37432    14.041423   -2.5351292    29.660845   -5.1470505    12.612127     22.30075    14.235163 
   62000    318.87592    599.69401            0    1841.0582     12.46247    22.373579     14.04087   -2.3598548    29.586665   -5.2023231    12.612127     22.30075    14.235163 
   62200    312.71251    554.31733            0    1771.6877    12.464968    22.372401    14.040293    -2.109917    29.468828   -5.2600354    12.612127     22.30075    14.235163 
   62400    315.60159     471.5584            0    1700.1758    12.467628    22.371055    14.039695   -1.8437839    29.334161   -5.3198617    12.612127     22.30075    14.235163 
   62600    323.30712    436.29999            0    1694.9146    12.469936    22.369729    14.039189   -1.6129606    29.201573   -5.3704796    12.612127     22.30075    14.235163 
   62800    303.70676    488.02303            0    1670.3346    12.471531    22.368729    14.038905   -1.4533407    29.101503   -5.3988983    12.612127     22.30075    14.235163 
   63000    316.31372     640.4127            0    1871.8024     12.47293    22.368291    14.038815   -1.3133595    29.057644   -5.4079648    12.612127     22.30075    14.235163 
   63200    313.04535    777.17642            0    1995.8425    12.474221    22.368422    14.038729   -1.1841956    29.070785   -5.4164941    12.612127     22.30075    14.235163 
   63400    322.05413    794.95584            0    2048.6926    12.475097    22.368718    14.038596   -1.0966485      29.1004   -5.4297953    12.612127     22.30075    14.235163 
   63600    314.79604    704.93999            0    1930.4214    12.475376    22.368582    14.038394   -1.0686605    29.086779   -5.4500386    12.612127     22.30075    14.235163 
   63800    307.41195    702.42854            0    1899.1642    12.475526    22.367975    14.038116   -1.0536442    29.026088   -5.4778498    12.612127     22.30075    14.235163 
   64000    319.15184    791.46156            0    2033.8999    12.475591    22.367058    14.037969    -1.047151    28.934358   -5.4925891    12.612127     22.30075    14.235163 
   64200    309.97463    833.99095            0    2040.7029    12.475365    22.366015    14.037959   -1.0698031    28.830014   -5.4935735    12.612127     22.30075    14.235163 
   64400    304.61087    740.68556            0    1926.5168    12.475164    22.365014    14.037875   -1.0899012    28.729882   -5.5019933    12.612127     22.30075    14.235163 
   64600    309.89818    634.24581            0    1840.6602    12.475517    22.363891    14.037505   -1.0545844    28.617469   -5.5390335    12.612127     22.30075    14.235163 
   64800    313.17749     658.1697            0    1877.3502    12.476879    22.362185    14.036913  -0.91833097    28.446792   -5.5981938    12.612127     22.30075    14.235163 
   65000    316.74077    746.83543            0    1979.8876    12.479603    22.359646    14.036276  -0.64581034    28.192812   -5.6619624    12.612127     22.30075    14.235163 
   65200    322.48464    648.79672            0    1904.2094    12.483759    22.356435    14.035723  -0.22999121    27.871619   -5.7172506    12.612127     22.30075    14.235163 
   65400    301.36449    488.57428            0    1661.7675    12.488699    22.353033    14.035191   0.26416286    27.531231   -5.7704669    12.612127     22.30075    14.235163 
   65600    310.32524    350.20132            0    1558.2782    12.494039    22.350488    14.034586   0.79840394    27.276641   -5.8310388    12.612127     22.30075    14.235163 
   65800    318.63597    313.02618            0    1553.4562    12.499544    22.349182    14.034032    1.3490835    27.145938   -5.8864477    12.612127     22.30075    14.235163 
   66000    313.38482    346.49057            0    1566.4782    12.504755    22.348436    14.033574    1.8704026    27.071397   -5.9322741    12.612127     22.30075    14.235163 
   66200    315.08182    407.73375            0    1634.3277    12.508984     22.34781    14.033274    2.2935095    27.008779   -5.9622271    12.612127     22.30075    14.235163 
   66400    305.40092    418.29333            0    1607.2002    12.511685    22.347273    14.033161    2.5637576    26.955025   -5.9735701    12.612127     22.30075    14.235163 
   66600    315.54103    546.46514            0    1774.8468    12.512749    22.347454    14.033058    2.6701358     26.97312   -5.9838593    12.612127     22.30075    14.235163 
   66800    307.99819    792.87283            0    1991.8907    12.512138    22.348967    14.032766    2.6090168    27.124449   -6.0130884    12.612127     22.30075    14.235163 
   67000    313.81609    917.95587            0    2139.6224    12.509443    22.351342    14.032405    2.3394228    27.362061   -6.0492328    12.612127     22.30075    14.235163 
   67200    312.68936    916.84721            0    2134.1275     12.50498    22.354036    14.032111    1.8929662    27.631599   -6.0786289    12.612127     22.30075    14.235163 
   67400     305.2832    745.48087            0    1933.9294    12.499643      22.3569    14.031891     1.359073    27.918149   -6.1006466    12.612127     22.30075    14.235163 
   67600    307.71468    597.30454            0    1795.2187    12.494135     22.35979    14.031736   0.80795006    28.207234   -6.1161013    12.612127     22.30075    14.235163 
   67800    317.93808    459.39325            0    1697.1064    12.488732    22.362489    14.031631   0.26748835    28.477201   -6.1266766    12.612127     22.30075    14.235163 
   68000    310.55965     366.6837            0    1575.6732    12.484079     22.36545    14.031762  -0.19803465    28.773426   -6.1135735    12.612127     22.30075    14.235163 
   68200     311.2273    314.25048            0     1525.839    12.480804    22.369088    14.032081  -0.52564273    29.137396   -6.0816324    12.612127     22.30075    14.235163 
   68400    310.43612    277.66424            0    1486.1728    12.479232    22.372955    14.032516  -0.68297735    29.524329   -6.0381114    12.612127     22.30075    14.235163 
   68600    310.53255    347.94068            0    1556.8246    12.479266     22.37642     14.03294  -0.67948388    29.870934   -5.9956942    12.612127     22.30075    14.235163 
   68800     301.0851    523.93091            0    1696.0365    12.480602    22.379027    14.033136  -0.54591422    30.131751   -5.9760362    12.612127     22.30075    14.235163 
   69000     309.4806    715.17984            0    1919.9686    12.483274    22.380709    14.033044  -0.27851162    30.300005   -5.9852526    12.612127     22.30075    14.235163 
   69200    314.72277    698.00211            0    1923.1983    12.487044    22.381431    14.032868  0.098627928    30.372291    -6.002851    12.612127     22.30075    14.235163 
   69400    310.14462    713.13348            0    1920.5072     12.49118    22.381693    14.032746   0.51239824    30.398405   -6.0150455    12.612127     22.30075    14.235163 
   69600    303.59309    761.87121            0    1943.7403    12.495102     22.38249    14.032532   0.90472076    30.478148   -6.0365428    12.612127     22.30075    14.235163 
   69800    305.59117    770.34561            0    1959.9931    12.498293     22.38385    14.032044    1.2239701    30.614266   -6.0853022    12.612127     22.30075    14.235163 
   70000    315.39578    719.40015            0    1947.2163    12.501074    22.385191    14.031224    1.5022097    30.748384   -6.1673391    12.612127     22.30075    14.235163 
   70200    316.69322    688.59614            0    1921.4632    12.503518    22.386692    14.030216    1.7466613    30.898541    -6.268163    12.612127     22.30075    14.235163 
   70400     305.9447    712.35337            0    1903.3771    12.505597    22.388589    14.029126    1.9547218     31.08836   -6.3771927    12.612127     22.30075    14.235163 
   70600    321.78772    692.36566            0    1945.0653    12.507664     22.39094    14.027923    2.1614249    31.323527   -6.4975532    12.612127     22.30075    14.235163 
   70800    298.03258    567.22336            0    1727.4457    12.509322    22.394036    14.026477    2.3273144    31.633309   -6.6422358    12.612127     22.30075    14.235163 
   71000    315.44949    490.74343            0    1718.7687    12.510195    22.397971    14.024874    2.4146667    32.026891   -6.8025683    12.612127     22.30075    14.235163 
   71200    315.37624     353.8671            0    1581.6072    12.510389    22.402373     14.02326    2.4341149     32.46734   -6.9641088    12.612127     22.30075    14.235163 
   71400    323.89901    248.81004            0    1509.7288    12.510159    22.406807     14.02172    2.4110235    32.910905   -7.1181475    12.612127     22.30075    14.235163 
   71600    306.01813    270.43445            0     1461.744    12.509905    22.411082    14.020318    2.3857044    33.338565   -7.2583882    12.612127     22.30075    14.235163 
   71800    318.19761    385.48928            0    1624.2128    12.509467     22.41482    14.019078    2.3418177    33.712562    -7.382493    12.612127     22.30075    14.235163 
   72000    315.33951    535.66455            0    1763.2617    12.508996    22.417349    14.017854    2.2947006    33.965534   -7.5048729    12.612127     22.30075    14.235163 
   72200    304.29108    667.43448            0    1852.0207    12.508731    22.418146    14.016426    2.2682155    34.045277   -7.6478095    12.612127     22.30075    14.235163 
   72400    320.75566    759.75136            0    2008.4332    12.508186    22.416938    14.014779    2.2137086    33.924411   -7.8125646    12.612127     22.30075    14.235163 
   72600     318.8771     653.6571            0    1895.0259    12.507292    22.414233    14.013285    2.1242512    33.653821   -7.9619755    12.612127     22.30075    14.235163 
   72800    299.53871    514.34444            0      1680.43    12.506593    22.411537    14.012136     2.054352    33.384155     -8.07693    12.612127     22.30075    14.235163 
   73000    319.63959      410.699            0    1655.0361    12.506166    22.409731    14.011248     2.011589    33.203441   -8.1657828    12.612127     22.30075    14.235163 
   73200    300.20226     305.6903            0    1474.3591    12.505846    22.408804    14.010511    1.9796217    33.110741   -8.2395095    12.612127     22.30075    14.235163 
   73400    319.04608    246.24121            0    1488.2678     12.50544    22.408596     14.00985     1.938944    33.089879   -8.3056513    12.612127     22.30075    14.235163 
   73600    302.60819    331.40983            0    1509.4447    12.504959    22.409136    14.009219    1.8908096     33.14395   -8.3687352    12.612127     22.30075    14.235163 
   73800    313.06828    501.46252            0    1720.2179    12.504298    22.410453    14.008632    1.8246906    33.275686   -8.4275352    12.612127     22.30075    14.235163 
   74000    322.54365    601.14378            0    1856.7862    12.503365    22.412556    14.008116    1.7313851    33.486081   -8.4791211    12.612127     22.30075    14.235163 
   74200    307.01094    717.75285            0    1912.9274    12.502607    22.415966    14.007559    1.6555266    33.827153   -8.5347957    12.612127     22.30075    14.235163 
   74400    316.44399    684.62129            0    1916.5181    12.502103    22.421103    14.006773     1.605154    34.341133   -8.6135192    12.612127     22.30075    14.235163 
   74600    311.36738    711.25798            0    1923.3919    12.501464     22.42744    14.005729    1.5412175    34.975043   -8.7178726    12.612127     22.30075    14.235163 
   74800    313.18413    628.79486            0    1848.0012    12.501429    22.433952    14.004678    1.5376995    35.626599   -8.8230647    12.612127     22.30075    14.235163 
   75000     306.2388    367.31545            0    1559.4841     12.50256    22.439661    14.003898    1.6508299    36.197686   -8.9011036    12.612127     22.30075    14.235163 
   75200    306.18794    170.10904            0    1362.0797    12.504615    22.444421    14.003327    1.8564039    36.673899   -8.9582229    12.612127     22.30075    14.235163 
   75400    312.52485     178.2766            0    1394.9165    12.507636    22.448374    14.002655    2.1586176    37.069387    -9.025497    12.612127     22.30075    14.235163 
   75600    320.51032    338.78944            0    1586.5162     12.51136    22.451155    14.001742    2.5312453    37.347589   -9.1168043    12.612127     22.30075    14.235163 
   75800     317.5668    482.05807            0    1718.3259    12.515637    22.452628    14.000728    2.9590938    37.494885   -9.2182149    12.612127     22.30075    14.235163 
   76000    303.59403    664.81549            0    1846.6882    12.520605     22.45276    13.999721    3.4560842    37.508136   -9.3189685    12.612127     22.30075    14.235163 
   76200    319.31711    872.06781            0    2115.1495    12.525901    22.450983    13.998675    3.9859053     37.33035   -9.4236582    12.612127     22.30075    14.235163 
   76400    307.32077    866.53032            0     2062.911    12.530767    22.447802     13.99748    4.4727227     37.01216   -9.5431579    12.612127     22.30075    14.235163 
   76600    316.45197    571.62609            0     1803.554    12.534633    22.444624    13.996318    4.8594539    36.694223   -9.6594556    12.612127     22.30075    14.235163 
   76800    325.96261    305.15124            0    1574.1034    12.537067    22.441641    13.995236    5.1030242    36.395789   -9.7676163    12.612127     22.30075    14.235163 
   77000    315.52368    117.99618            0    1346.3103    12.538369    22.438966    13.994191    5.2332075    36.128162   -9.8722222    12.612127     22.30075    14.235163 
   77200    314.99288    154.85525            0     1381.103    12.539153    22.436938    13.993101    5.3116754    35.925249   -9.9812232    12.612127     22.30075    14.235163 
   77400    318.91512    357.63211            0    1599.1489    12.539744    22.435875    13.991941    5.3707648    35.818972   -10.097263    12.612127     22.30075    14.235163 
   77600    311.47243    617.06997            0    1829.6128    12.539866    22.436155    13.990754    5.3829912    35.846968   -10.216002    12.612127     22.30075    14.235163 
   77800    318.74201    837.41854            0    2078.2614    12.539263    22.437814    13.989764    5.3226591    36.012915    -10.31508    12.612127     22.30075    14.235163 
   78000    310.28997    974.05382            0    2181.9934    12.538062    22.440671    13.989046    5.2025104    36.298724   -10.386969    12.612127     22.30075    14.235163 
   78200    314.00401    899.78017            0    2122.1783    12.537237     22.44456    13.988571    5.1199608    36.687811   -10.434395    12.612127     22.30075    14.235163 
   78400    304.60166     700.9925            0    1886.7879    12.537759    22.448933    13.988369    5.1722445    37.125274   -10.454648    12.612127     22.30075    14.235163 
   78600    325.54765    359.10579            0    1626.4426     12.54012    22.453605    13.988452    5.4083934    37.592664   -10.446302    12.612127     22.30075    14.235163 
   78800    304.90265    206.76448            0    1393.7316    12.543825    22.458564    13.988539    5.7791212    38.088775   -10.437625    12.612127     22.30075    14.235163 
   79000    307.73841    225.41285            0    1423.4194    12.547989    22.463406    13.988452    6.1956856    38.573173   -10.446319    12.612127     22.30075    14.235163 
   79200    315.92062    291.20683            0    1521.0662    12.551707     22.46746    13.988297    6.5675783    38.978736   -10.461817    12.612127     22.30075    14.235163 
   79400    307.59658    486.48439            0    1683.9388    12.554685    22.470235    13.988261     6.865575    39.256366   -10.465463    12.612127     22.30075    14.235163 
   79600    314.04341    705.73506            0    1928.2866    12.557082    22.471506    13.988382    7.1053233    39.383566   -10.453381    12.612127     22.30075    14.235163 
   79800    305.61648     986.2895            0    2176.0355       12.559    22.471395    13.988613    7.2972389    39.372386    -10.43022    12.612127     22.30075    14.235163 
   80000    326.73991    1115.8865            0    2387.8647    12.560714    22.470181    13.988916    7.4686925    39.251023   -10.399883    12.612127     22.30075    14.235163 
   80200    307.57519    958.60987            0     2155.981     12.56271    22.468818    13.989414    7.6684264    39.114649   -10.350153    12.612127     22.30075    14.235163 
   80400     311.7147    682.50927            0    1895.9953    12.565482    22.467908    13.990143    7.9457345    39.023534   -10.277187    12.612127     22.30075    14.235163 
   80600    319.75702     507.0061            0    1751.8003    12.569855     22.46769    13.990888     8.383197    39.001767    -10.20269    12.612127     22.30075    14.235163 
   80800    314.65562    497.58011            0    1722.5149    12.575859    22.468185    13.991617      8.98385    39.051241   -10.129704    12.612127     22.30075    14.235163 
   81000     311.5342    409.11869            0     1621.902    12.582808    22.469378    13.992344    9.6790664    39.170641   -10.057025    12.612127     22.30075    14.235163 
   81200    323.33664    357.73402            0    1616.4635    12.589942    22.471114    13.992953     10.39277    39.344282   -9.9960615    12.612127     22.30075    14.235163 
   81400    313.17063    565.11843            0    1784.2723    12.596176    22.472913    13.993398    11.016351    39.524294   -9.9515791    12.612127     22.30075    14.235163 
   81600     306.7228    727.45292            0    1921.5057    12.599771    22.474295     13.99382    11.376084    39.662547   -9.9093696    12.612127     22.30075    14.235163 
   81800    313.91399    761.72227            0      1983.77    12.600567    22.475346    13.994224     11.45567    39.767707   -9.8688762    12.612127     22.30075    14.235163 
   82000    307.06465    712.26717            0    1907.6508      12.5999    22.476666    13.994593    11.388934    39.899778   -9.8319688    12.612127     22.30075    14.235163 
   82200     320.6976    837.02654            0    2085.4824    12.598632    22.478866    13.994935    11.262104    40.119801   -9.7978019    12.612127     22.30075    14.235163 
   82400    304.97708    911.36536            0    2098.6222    12.596802    22.481808    13.995009    11.079041    40.414116   -9.7904191    12.612127     22.30075    14.235163 
   82600    319.36116    857.03788            0     2100.291    12.594055    22.484165    13.994517    10.804152    40.649925   -9.8396257    12.612127     22.30075    14.235163 
   82800    305.88415    654.11447            0    1844.9025    12.590449    22.484904    13.993529    10.443487    40.723894   -9.9383849    12.612127     22.30075    14.235163 
   83000    323.05134    575.80785            0    1833.4267    12.586788    22.484674    13.992293    10.077222    40.700848   -10.062101    12.612127     22.30075    14.235163 
   83200    304.03221    605.03411            0    1788.6126    12.582769    22.484236    13.991003    9.6751099    40.657042   -10.191169    12.612127     22.30075    14.235163 
   83400    304.14139    551.09671            0    1735.1003    12.577781    22.483486    13.989715    9.1761585    40.582058   -10.319945    12.612127     22.30075    14.235163 
   83600    319.99188    511.79677            0    1757.5053    12.572774    22.482954    13.988585    8.6752428    40.528797   -10.433058    12.612127     22.30075    14.235163 
[...]
  341000    304.19619    231.36031    231.36031            0            0            0            0    231.36031    1184.2169    1415.5772    12.677683    22.499873    15.116177    19.170544    42.221457    102.37358    12.612127     22.30075    14.235163 
  341200     315.3671    141.18113    141.18113            0            0            0            0    141.18113    1227.7045    1368.8857    12.673243    22.494851    15.119024    18.726366    41.718965    102.65834    12.612127     22.30075    14.235163 
  341400     319.4276    19.669938    19.669938            0            0            0            0    19.669938    1243.5118    1263.1818    12.671122    22.491032    15.122995    18.514087    41.336952    103.05564    12.612127     22.30075    14.235163 
  341600    302.12992    19.422967    19.422967            0            0            0            0    19.422967     1176.173     1195.596    12.670069    22.487928    15.127086    18.408815    41.026428    103.46486    12.612127     22.30075    14.235163 
  341800    319.77155    123.88775    123.88775            0            0            0            0    123.88775    1244.8508    1368.7385    12.668404    22.486098    15.132267    18.242218     40.84331    103.98323    12.612127     22.30075    14.235163 
  342000     317.5098  -0.60160711  -0.60160711            0            0            0            0  -0.60160711    1236.0459    1235.4443    12.667244    22.485972    15.137876    18.126194    40.830773    104.54432    12.612127     22.30075    14.235163 
  342200    318.63837    87.259575    87.259575            0            0            0            0    87.259575    1240.4394     1327.699    12.665834    22.486754    15.142125    17.985102     40.90895    104.96942    12.612127     22.30075    14.235163 
  342400    312.74908   -16.992945   -16.992945            0            0            0            0   -16.992945    1217.5128    1200.5198    12.665277    22.486778     15.14471    17.929348    40.911403    105.22803    12.612127     22.30075    14.235163 
  342600    314.49219    53.623274    53.623274            0            0            0            0    53.623274    1224.2986    1277.9219    12.665639    22.486491     15.14705     17.96559    40.882671    105.46211    12.612127     22.30075    14.235163 
  342800    309.82424    77.251035    77.251035            0            0            0            0    77.251035    1206.1265    1283.3776    12.666764    22.489177    15.148898     18.07811    41.151421    105.64699    12.612127     22.30075    14.235163 
  343000    324.51086    52.431755    52.431755            0            0            0            0    52.431755    1263.3006    1315.7324    12.668566    22.495147     15.15007    18.258461    41.748611    105.76427    12.612127     22.30075    14.235163 
  343200      305.963    27.983578    27.983578            0            0            0            0    27.983578     1191.095    1219.0786    12.671374    22.501529    15.150603    18.539346    42.387079    105.81755    12.612127     22.30075    14.235163 
  343400     321.5603    218.77071    218.77071            0            0            0            0    218.77071    1251.8143     1470.585    12.674748    22.506679    15.150932    18.876883    42.902278    105.85055    12.612127     22.30075    14.235163 
  343600    311.46204   -12.739221   -12.739221            0            0            0            0   -12.739221    1212.5024    1199.7632    12.675551    22.510398    15.150825    18.957239    43.274327    105.83977    12.612127     22.30075    14.235163 
  343800    322.34407   -14.881527   -14.881527            0            0            0            0   -14.881527    1254.8654    1239.9839    12.675806    22.513507    15.150591    18.982738    43.585442    105.81637    12.612127     22.30075    14.235163 
  344000    303.92658    -5.829421    -5.829421            0            0            0            0    -5.829421    1183.1673    1177.3379    12.676007    22.516169    15.150426    19.002829    43.851734    105.79988    12.612127     22.30075    14.235163 
  344200    322.09831    119.00449    119.00449            0            0            0            0    119.00449    1253.9087    1372.9132     12.67571    22.518023    15.150668    18.973123    44.037196    105.82405    12.612127     22.30075    14.235163 
  344400    310.37813   -9.2824908   -9.2824908            0            0            0            0   -9.2824908    1208.2828    1199.0003    12.674623    22.517516    15.152173    18.864415    43.986421    105.97465    12.612127     22.30075    14.235163 
  344600    316.30052    133.16507    133.16507            0            0            0            0    133.16507    1231.3383    1364.5033    12.672908    22.516633    15.154014    18.692789    43.898172    106.15879    12.612127     22.30075    14.235163 
  344800    308.42431    212.12308    212.12308            0            0            0            0    212.12308    1200.6767    1412.7998    12.669983    22.514277    15.156041    18.400205    43.662383    106.36162    12.612127     22.30075    14.235163 
  345000    307.14701    27.179244    27.179244            0            0            0            0    27.179244    1195.7043    1222.8835    12.667827    22.508991    15.156962    18.184511      43.1336    106.45378    12.612127     22.30075    14.235163 
  345200    316.28306    51.568574    51.568574            0            0            0            0    51.568574    1231.2703    1282.8389    12.667047    22.504001    15.156742    18.106437    42.634378     106.4317    12.612127     22.30075    14.235163 
  345400    311.31347   -24.679866   -24.679866            0            0            0            0   -24.679866     1211.924    1187.2442    12.668118     22.50002    15.157494    18.213658    42.236144    106.50698    12.612127     22.30075    14.235163 
  345600    312.21194   -18.208099   -18.208099            0            0            0            0   -18.208099    1215.4217    1197.2136    12.669775    22.496358    15.158514    18.379421    41.869817    106.60899    12.612127     22.30075    14.235163 
  345800    327.34852    23.139512    23.139512            0            0            0            0    23.139512    1274.3475     1297.487    12.671775    22.492431    15.159531     18.57945    41.476875     106.7108    12.612127     22.30075    14.235163 
  346000    320.30369    148.40629    148.40629            0            0            0            0    148.40629    1246.9224    1395.3287    12.674155    22.487948    15.160615    18.817529    41.028404    106.81917    12.612127     22.30075    14.235163 
  346200    312.29777     231.4104     231.4104            0            0            0            0     231.4104    1215.7558    1447.1662     12.67447    22.484193    15.162264    18.849081     40.65281     106.9842    12.612127     22.30075    14.235163 
  346400    309.35445    87.892767    87.892767            0            0            0            0    87.892767    1204.2977    1292.1904     12.67254    22.484184    15.164509    18.655962    40.651829    107.20882    12.612127     22.30075    14.235163 
  346600    325.05463    7.3437947    7.3437947            0            0            0            0    7.3437947    1265.4175    1272.7613    12.672147    22.487217    15.166893     18.61668    40.955274    107.44724    12.612127     22.30075    14.235163 
  346800    301.13647    105.05812    105.05812            0            0            0            0    105.05812    1172.3056    1277.3637    12.672902    22.491939     15.16905    18.692253     41.42767    107.66308    12.612127     22.30075    14.235163 
  347000     316.0204    138.23615    138.23615            0            0            0            0    138.23615    1230.2478     1368.484    12.672926    22.496565     15.17163    18.694606    41.890485     107.9212    12.612127     22.30075    14.235163 
  347200    312.62587    141.63163    141.63163            0            0            0            0    141.63163    1217.0331    1358.6647    12.671561    22.498583    15.175589    18.558003    42.092384     108.3172    12.612127     22.30075    14.235163 
  347400    325.67752    -7.940426    -7.940426            0            0            0            0    -7.940426    1267.8424    1259.9019    12.671795     22.49835    15.178956    18.581434    42.069091    108.65411    12.612127     22.30075    14.235163 
  347600    308.25214    17.774422    17.774422            0            0            0            0    17.774422    1200.0064    1217.7809    12.672733    22.497528    15.181862     18.67534     41.98684    108.94482    12.612127     22.30075    14.235163 
  347800    312.78154    13.761464    13.761464            0            0            0            0    13.761464    1217.6391    1231.4006     12.67433    22.497047    15.184839    18.835036    41.938656    109.24265    12.612127     22.30075    14.235163 
  348000    317.19471    79.766039    79.766039            0            0            0            0    79.766039    1234.8193    1314.5854    12.675352    22.497011    15.188104    18.937294    41.935126    109.56924    12.612127     22.30075    14.235163 
  348200    316.38901    84.411685    84.411685            0            0            0            0    84.411685    1231.6828    1316.0945     12.67515    22.496047    15.191624    18.917137    41.838659    109.92141    12.612127     22.30075    14.235163 
  348400    306.99378    4.2282082    4.2282082            0            0            0            0    4.2282082    1195.1077    1199.3359    12.673876    22.493583    15.194471    18.789604    41.592195    110.20626    12.612127     22.30075    14.235163 
  348600    322.05848    68.360974    68.360974            0            0            0            0    68.360974    1253.7537    1322.1147    12.673073     22.49151    15.197395     18.70928    41.384792    110.49876    12.612127     22.30075    14.235163 
  348800    315.17747    84.312124    84.312124            0            0            0            0    84.312124    1226.9663    1311.2784    12.674255    22.491236    15.199392    18.827549     41.35739    110.69852    12.612127     22.30075    14.235163 
  349000    318.20622    91.087945    91.087945            0            0            0            0    91.087945    1238.7571     1329.845    12.676552    22.491946    15.201325    19.057344    41.428391    110.89188    12.612127     22.30075    14.235163 
  349200    319.36325    21.670046    21.670046            0            0            0            0    21.670046    1243.2613    1264.9313    12.678447    22.492816    15.203182    19.246969    41.515457    111.07774    12.612127     22.30075    14.235163 
  349400    307.84403   -16.066329   -16.066329            0            0            0            0   -16.066329    1198.4177    1182.3514    12.679639    22.493936    15.204822     19.36621    41.627425    111.24172    12.612127     22.30075    14.235163 
  349600    314.65799    2.8749471    2.8749471            0            0            0            0    2.8749471     1224.944     1227.819    12.680475    22.494998    15.206362    19.449795    41.733766    111.39587    12.612127     22.30075    14.235163 
  349800    312.35609    120.75085    120.75085            0            0            0            0    120.75085    1215.9829    1336.7337    12.680237    22.496655    15.208152    19.426039    41.899444     111.5749    12.612127     22.30075    14.235163 
  350000    306.83677    112.37067    112.37067            0            0            0            0    112.37067    1194.4965    1306.8672    12.678624    22.499627    15.209317    19.264618    42.196824    111.69147    12.612127     22.30075    14.235163 
  350200    319.07761    15.798418    15.798418            0            0            0            0    15.798418    1242.1493    1257.9478    12.678265    22.502883    15.209128    19.228735    42.522524    111.67255    12.612127     22.30075    14.235163 
  350400    303.39649    36.895829    36.895829            0            0            0            0    36.895829    1181.1037    1217.9995    12.677417    22.506047    15.208634    19.143911     42.83906    111.62312    12.612127     22.30075    14.235163 
  350600    321.00609    51.182039    51.182039            0            0            0            0    51.182039    1249.6568    1300.8388    12.676422    22.509223       15.208    19.044361    43.156849    111.55968    12.612127     22.30075    14.235163 
  350800    312.39992    116.32322    116.32322            0            0            0            0    116.32322    1216.1535    1332.4767    12.675288    22.510923    15.207663    18.930901    43.326845    111.52601    12.612127     22.30075    14.235163 
  351000    321.89096   -19.684843   -19.684843            0            0            0            0   -19.684843    1253.1015    1233.4167    12.674827    22.510136    15.206975    18.884802    43.248129    111.45716    12.612127     22.30075    14.235163 
  351200     310.8601   -6.2258197   -6.2258197            0            0            0            0   -6.2258197    1210.1591    1203.9332    12.674708    22.508848    15.205762    18.872913    43.119252    111.33579    12.612127     22.30075    14.235163 
  351400    315.19145    47.495705    47.495705            0            0            0            0    47.495705    1227.0207    1274.5165    12.673485    22.506842    15.204254    18.750541    42.918568    111.18499    12.612127     22.30075    14.235163 
  351600    314.44241    23.178491    23.178491            0            0            0            0    23.178491    1224.1048    1247.2833    12.670672    22.503804    15.202463    18.469092    42.614654     111.0058    12.612127     22.30075    14.235163 
  351800    328.69883    49.465498    49.465498            0            0            0            0    49.465498    1279.6041    1329.0696     12.66871    22.500759    15.201055    18.272832    42.310037    110.86491    12.612127     22.30075    14.235163 
  352000    299.13365    66.268863    66.268863            0            0            0            0    66.268863    1164.5087    1230.7776    12.668406    22.498461     15.20027    18.242382    42.080196    110.78635    12.612127     22.30075    14.235163 
  352200    315.52524    172.06938    172.06938            0            0            0            0    172.06938    1228.3202    1400.3896     12.66756    22.495279    15.199806     18.15774    41.761808    110.73999    12.612127     22.30075    14.235163 
  352400    315.30129     -4.82527     -4.82527            0            0            0            0     -4.82527    1227.4484    1222.6231    12.667338    22.494734    15.199897    18.135547    41.707264    110.74908    12.612127     22.30075    14.235163 
  352600    311.25214   -5.3067898   -5.3067898            0            0            0            0   -5.3067898    1211.6853    1206.3785    12.668827    22.496472    15.199935    18.284538    41.881181    110.75285    12.612127     22.30075    14.235163 
  352800    328.67272    33.089083    33.089083            0            0            0            0    33.089083    1279.5025    1312.5916    12.671752    22.499763    15.199705    18.577205    42.210398    110.72985    12.612127     22.30075    14.235163 
  353000     318.1784    47.231052    47.231052            0            0            0            0    47.231052    1238.6488    1285.8798     12.67424    22.503963    15.199878    18.826101    42.630581    110.74714    12.612127     22.30075    14.235163 
  353200    319.10799   -23.688002   -23.688002            0            0            0            0   -23.688002    1242.2676    1218.5796    12.675731    22.508738    15.200394    18.975181     43.10828    110.79877    12.612127     22.30075    14.235163 
  353400    311.34128    16.757244    16.757244            0            0            0            0    16.757244    1212.0323    1228.7895    12.677222    22.512729    15.201044    19.124406    43.507588    110.86377    12.612127     22.30075    14.235163 
  353600    309.29229    26.370328    26.370328            0            0            0            0    26.370328    1204.0557     1230.426    12.678649    22.513928    15.201897    19.267105    43.627523    110.94911    12.612127     22.30075    14.235163 
  353800    317.27552     258.5545     258.5545            0            0            0            0     258.5545    1235.1339    1493.6884    12.679838    22.512857    15.202874    19.386077    43.520407    111.04691    12.612127     22.30075    14.235163 
  354000    312.42662    50.878888    50.878888            0            0            0            0    50.878888    1216.2574    1267.1363    12.679318    22.506936    15.204006    19.334061    42.928056     111.1601    12.612127     22.30075    14.235163 
  354200    317.49926    56.798735    56.798735            0            0            0            0    56.798735    1236.0049    1292.8037    12.678404    22.500976    15.206116    19.242688    42.331771    111.37125    12.612127     22.30075    14.235163 
  354400    321.24981    147.31866    147.31866            0            0            0            0    147.31866    1250.6056    1397.9242    12.678415    22.496714    15.208784    19.243711    41.905363    111.63816    12.612127     22.30075    14.235163 
  354600     316.7035   -9.9292911   -9.9292911            0            0            0            0   -9.9292911    1232.9071    1222.9778    12.679448    22.495422    15.210873    19.347043    41.776089    111.84714    12.612127     22.30075    14.235163 
  354800    305.64135    21.862961    21.862961            0            0            0            0    21.862961    1189.8428    1211.7058    12.680693    22.494339     15.21272    19.471663    41.667797    112.03193    12.612127     22.30075    14.235163 
  355000    313.59673   -9.9195771   -9.9195771            0            0            0            0   -9.9195771    1220.8126     1210.893    12.681078     22.49384    15.213692    19.510171    41.617834    112.12915    12.612127     22.30075    14.235163 
  355200    312.27875  -0.58344002  -0.58344002            0            0            0            0  -0.58344002    1215.6818    1215.0983    12.680411    22.494124    15.214354    19.443442    41.646309    112.19542    12.612127     22.30075    14.235163 
  355400    316.79776    210.56749    210.56749            0            0            0            0    210.56749     1233.274    1443.8415    12.678849    22.494957    15.215246    19.287169    41.729648    112.28463    12.612127     22.30075    14.235163 
  355600    313.10978     143.3062     143.3062            0            0            0            0     143.3062    1218.9169    1362.2231    12.677045    22.494847    15.215765    19.106706    41.718647    112.33657    12.612127     22.30075    14.235163 
  355800    306.98373    29.019134    29.019134            0            0            0            0    29.019134    1195.0686    1224.0877    12.675517    22.494105    15.216782    18.953848     41.64434    112.43829    12.612127     22.30075    14.235163 
  356000    304.87191    16.474232    16.474232            0            0            0            0    16.474232    1186.8474    1203.3216    12.673243    22.494595    15.217921    18.726355    41.693351    112.55218    12.612127     22.30075    14.235163 
  356200    316.83998    4.1988032    4.1988032            0            0            0            0    4.1988032    1233.4384    1237.6372    12.671882     22.49617    15.219753    18.590159    41.851004    112.73547    12.612127     22.30075    14.235163 
  356400    319.58452    66.133874    66.133874   