LAMMPS data file. CGCMM style. atom_style full generated by VMD/TopoTools v1.5 on Sun Mar 05 19:09:40 PST 2017
 1352 atoms
 0 bonds
 0 angles
 0 dihedrals
 0 impropers
 10 atom types
 0 bond types
 0 angle types
 0 dihedral types
 0 improper types
 0.444700 26.558700  xlo xhi
 0.314250 45.544250  ylo yhi
 -0.000021 27.666979  zlo zhi

# Pair Coeffs
#
# 1  CH4
# 2  Ca
# 3  Cb
# 4  Cc
# 5  Cd
# 6  H
# 7  Mg
# 8  Oa
# 9  Ob
# 10  Oc

 Masses

 1 16.040001 # CH4
 2 12.011000 # Ca
 3 12.011000 # Cb
 4 12.011000 # Cc
 5 12.011000 # Cd
 6 1.008000 # H
 7 24.305000 # Mg
 8 15.999000 # Oa
 9 15.999000 # Ob
 10 15.999000 # Oc

 Atoms

1 1 1 0.000000 26.114401 45.230499 14.822000 # CH4 
2 1 1 0.000000 26.114401 45.230499 16.798000 # CH4 
3 1 1 0.000000 26.114401 45.230499 18.774000 # CH4 
4 1 1 0.000000 26.114401 45.230499 20.750000 # CH4 
5 1 1 0.000000 26.114401 45.230499 22.726000 # CH4 
6 1 1 0.000000 26.114401 45.230499 24.702999 # CH4 
7 1 1 0.000000 26.114401 45.230499 26.678999 # CH4 
8 1 1 0.000000 26.114401 45.230499 0.988000 # CH4 
9 1 1 0.000000 26.114401 45.230499 2.964000 # CH4 
10 1 1 0.000000 26.114401 45.230499 4.941000 # CH4 
11 1 1 0.000000 26.114401 45.230499 6.917000 # CH4 
12 1 1 0.000000 26.114401 45.230499 8.893000 # CH4 
13 1 1 0.000000 26.114401 45.230499 10.869000 # CH4 
14 1 1 0.000000 26.114401 45.230499 12.845000 # CH4 
15 1 1 0.000000 26.114401 22.614500 14.822000 # CH4 
16 1 1 0.000000 26.114401 22.614500 16.798000 # CH4 
17 1 1 0.000000 26.114401 22.614500 18.774000 # CH4 
18 1 1 0.000000 26.114401 22.614500 20.750000 # CH4 
19 1 1 0.000000 26.114401 22.614500 22.726000 # CH4 
20 1 1 0.000000 26.114401 22.614500 24.702999 # CH4 
21 1 1 0.000000 26.114401 22.614500 26.678999 # CH4 
22 1 1 0.000000 26.114401 22.614500 0.988000 # CH4 
23 1 1 0.000000 26.114401 22.614500 2.964000 # CH4 
24 1 1 0.000000 26.114401 22.614500 4.941000 # CH4 
25 1 1 0.000000 26.114401 22.614500 6.917000 # CH4 
26 1 1 0.000000 26.114401 22.614500 8.893000 # CH4 
27 1 1 0.000000 26.114401 22.614500 10.869000 # CH4 
28 1 1 0.000000 26.114401 22.614500 12.845000 # CH4 
29 1 1 0.000000 13.056400 45.230499 14.822000 # CH4 
30 1 1 0.000000 13.056400 45.230499 16.798000 # CH4 
31 1 1 0.000000 13.056400 45.230499 18.774000 # CH4 
32 1 1 0.000000 13.056400 45.230499 20.750000 # CH4 
33 1 1 0.000000 13.056400 45.230499 22.726000 # CH4 
34 1 1 0.000000 13.056400 45.230499 24.702999 # CH4 
35 1 1 0.000000 13.056400 45.230499 26.678999 # CH4 
36 1 1 0.000000 13.056400 45.230499 0.988000 # CH4 
37 1 1 0.000000 13.056400 45.230499 2.964000 # CH4 
38 1 1 0.000000 13.056400 45.230499 4.941000 # CH4 
39 1 1 0.000000 13.056400 45.230499 6.917000 # CH4 
40 1 1 0.000000 13.056400 45.230499 8.893000 # CH4 
41 1 1 0.000000 13.056400 45.230499 10.869000 # CH4 
42 1 1 0.000000 13.056400 45.230499 12.845000 # CH4 
43 1 1 0.000000 13.056400 22.614500 14.822000 # CH4 
44 1 1 0.000000 13.056400 22.614500 16.798000 # CH4 
45 1 1 0.000000 13.056400 22.614500 18.774000 # CH4 
46 1 1 0.000000 13.056400 22.614500 20.750000 # CH4 
47 1 1 0.000000 13.056400 22.614500 22.726000 # CH4 
48 1 1 0.000000 13.056400 22.614500 24.702999 # CH4 
49 1 1 0.000000 13.056400 22.614500 26.678999 # CH4 
50 1 1 0.000000 13.056400 22.614500 0.988000 # CH4 
51 1 1 0.000000 13.056400 22.614500 2.964000 # CH4 
52 1 1 0.000000 13.056400 22.614500 4.941000 # CH4 
53 1 1 0.000000 13.056400 22.614500 6.917000 # CH4 
54 1 1 0.000000 13.056400 22.614500 8.893000 # CH4 
55 1 1 0.000000 13.056400 22.614500 10.869000 # CH4 
56 1 1 0.000000 13.056400 22.614500 12.845000 # CH4 
57 1 7 0.000000 5.314000 7.966000 21.684460 # Mg LIG
58 2 7 0.000000 18.371000 30.580999 21.684460 # Mg LIG
59 3 7 0.000000 4.242000 6.491000 19.378460 # Mg LIG
60 4 7 0.000000 17.299000 29.106001 19.378460 # Mg LIG
61 1 7 0.000000 3.501000 8.158000 23.990459 # Mg LIG
62 2 7 0.000000 16.558001 30.773001 23.990459 # Mg LIG
63 5 7 0.000000 7.743000 14.649000 19.815460 # Mg LIG
64 6 7 0.000000 20.799000 37.264000 19.815460 # Mg LIG
65 7 7 0.000000 8.815000 16.124001 22.120461 # Mg LIG
66 8 7 0.000000 21.872000 38.738998 22.120461 # Mg LIG
67 3 7 0.000000 9.556000 14.457000 17.509460 # Mg LIG
68 4 7 0.000000 22.613001 37.071999 17.509460 # Mg LIG
69 9 7 0.000000 8.815000 31.200001 19.815460 # Mg LIG
70 10 7 0.000000 21.872000 8.585000 19.815460 # Mg LIG
71 11 7 0.000000 9.556000 29.534000 22.120461 # Mg LIG
72 12 7 0.000000 22.613001 6.919000 22.120461 # Mg LIG
73 5 7 0.000000 4.242000 21.568001 23.990459 # Mg LIG
74 13 7 0.000000 17.299000 44.182999 23.990459 # Mg LIG
75 14 7 0.000000 8.815000 1.047000 17.509460 # Mg LIG
76 8 7 0.000000 21.872000 23.662001 17.509460 # Mg LIG
77 9 7 0.000000 5.314000 38.118999 23.990459 # Mg LIG
78 10 7 0.000000 18.371000 15.504000 23.990459 # Mg LIG
79 15 7 0.000000 7.743000 44.801998 22.120461 # Mg LIG
80 16 7 0.000000 20.799000 22.187000 22.120461 # Mg LIG
81 17 7 0.000000 9.556000 44.611000 19.815460 # Mg LIG
82 18 7 0.000000 22.613001 21.996000 19.815460 # Mg LIG
83 19 7 0.000000 3.501000 38.311001 19.378460 # Mg LIG
84 20 7 0.000000 16.558001 15.696000 19.378460 # Mg LIG
85 21 7 0.000000 4.242000 36.645000 21.684460 # Mg LIG
86 22 7 0.000000 17.299000 14.030000 21.684460 # Mg LIG
87 23 7 0.000000 5.314000 23.042999 19.378460 # Mg LIG
88 24 7 0.000000 18.371000 0.428000 19.378460 # Mg LIG
89 25 7 0.000000 3.501000 23.233999 21.684460 # Mg LIG
90 26 7 0.000000 16.558001 0.619000 21.684460 # Mg LIG
91 13 7 0.000000 7.743000 29.726000 17.509460 # Mg LIG
92 14 7 0.000000 20.799000 7.111000 17.509460 # Mg LIG
93 3 2 0.000000 5.704000 9.170000 19.055460 # Ca LIG
94 4 2 0.000000 18.761000 31.785000 19.055460 # Ca LIG
95 27 3 0.000000 6.098000 10.247000 18.115459 # Cb LIG
96 28 3 0.000000 19.155001 32.862000 18.115459 # Cb LIG
97 27 5 0.000000 6.932000 11.258000 18.610460 # Cd LIG
98 28 5 0.000000 19.989000 33.873001 18.610460 # Cd LIG
99 27 6 0.000000 7.248000 11.206000 19.650459 # H LIG
100 28 6 0.000000 20.305000 33.820999 19.650459 # H LIG
101 3 9 0.000000 6.149000 9.140000 20.245461 # Ob LIG
102 4 9 0.000000 19.205999 31.754999 20.245461 # Ob LIG
103 3 8 0.000000 4.881000 8.269000 18.627460 # Oa LIG
104 4 8 0.000000 17.938000 30.884001 18.627460 # Oa LIG
105 27 10 0.000000 8.183000 13.257000 18.410460 # Oc LIG
106 28 10 0.000000 21.240000 35.872002 18.410460 # Oc LIG
107 1 8 0.000000 4.721000 6.715000 23.238461 # Oa LIG
108 2 8 0.000000 17.777000 29.330000 23.238461 # Oa LIG
109 1 8 0.000000 3.455000 7.631000 20.933460 # Oa LIG
110 2 8 0.000000 16.511000 30.246000 20.933460 # Oa LIG
111 29 10 0.000000 4.874000 9.358000 23.088459 # Oc LIG
112 30 10 0.000000 17.930000 31.973000 23.088459 # Oc LIG
113 31 10 0.000000 5.668000 6.177000 20.783461 # Oc LIG
114 32 10 0.000000 18.725000 28.792000 20.783461 # Oc LIG
115 29 4 0.000000 5.672000 10.284000 23.664459 # Cc LIG
116 30 4 0.000000 18.729000 32.898998 23.664459 # Cc LIG
117 7 2 0.000000 7.353000 13.445000 22.444460 # Ca LIG
118 8 2 0.000000 20.409000 36.060001 22.444460 # Ca LIG
119 29 3 0.000000 6.959000 12.368000 23.384460 # Cb LIG
120 30 3 0.000000 20.016001 34.983002 23.384460 # Cb LIG
121 27 4 0.000000 7.384000 12.331000 17.835461 # Cc LIG
122 28 4 0.000000 20.441000 34.945999 17.835461 # Cc LIG
123 29 5 0.000000 6.125000 11.357000 22.889460 # Cd LIG
124 30 5 0.000000 19.181000 33.972000 22.889460 # Cd LIG
125 29 6 0.000000 5.809000 11.409000 21.849461 # H LIG
126 30 6 0.000000 18.865999 34.023998 21.849461 # H LIG
127 7 9 0.000000 6.908000 13.475000 21.254459 # Ob LIG
128 8 9 0.000000 19.965000 36.090000 21.254459 # Ob LIG
129 7 8 0.000000 8.175000 14.346000 22.871460 # Oa LIG
130 8 8 0.000000 21.232000 36.960999 22.871460 # Oa LIG
131 3 8 0.000000 8.336000 15.900000 18.260460 # Oa LIG
132 4 8 0.000000 21.393000 38.514999 18.260460 # Oa LIG
133 5 8 0.000000 9.602000 14.984000 20.566460 # Oa LIG
134 6 8 0.000000 22.659000 37.598999 20.566460 # Oa LIG
135 32 10 0.000000 7.389000 16.438000 20.716461 # Oc LIG
136 32 10 0.000000 20.445999 39.053001 20.716461 # Oc LIG
137 13 8 0.000000 9.602000 30.059999 18.260460 # Oa LIG
138 14 8 0.000000 22.659000 7.445000 18.260460 # Oa LIG
139 11 8 0.000000 8.336000 30.976999 22.871460 # Oa LIG
140 12 8 0.000000 21.393000 8.362000 22.871460 # Oa LIG
141 25 8 0.000000 4.721000 21.791000 20.933460 # Oa LIG
142 32 8 0.000000 17.777000 44.405998 20.933460 # Oa LIG
143 32 10 0.000000 5.668000 21.254000 18.477459 # Oc LIG
144 32 10 0.000000 18.725000 43.868999 18.477459 # Oc LIG
145 32 8 0.000000 8.336000 0.824000 20.566460 # Oa LIG
146 18 8 0.000000 21.393000 23.438999 20.566460 # Oa LIG
147 32 10 0.000000 7.389000 1.361000 23.021460 # Oc LIG
148 32 10 0.000000 20.445999 23.976000 23.021460 # Oc LIG
149 32 10 0.000000 4.874000 39.512001 18.477459 # Oc LIG
150 32 10 0.000000 17.930000 16.896999 18.477459 # Oc LIG
151 21 2 0.000000 5.704000 39.324001 21.360460 # Ca LIG
152 22 2 0.000000 18.761000 16.709000 21.360460 # Ca LIG
153 32 3 0.000000 6.098000 40.401001 20.421459 # Cb LIG
154 32 3 0.000000 19.155001 17.785999 20.421459 # Cb LIG
155 32 4 0.000000 5.672000 40.438000 19.053459 # Cc LIG
156 32 4 0.000000 18.729000 17.823000 19.053459 # Cc LIG
157 32 5 0.000000 6.932000 41.410999 20.916460 # Cd LIG
158 32 5 0.000000 19.989000 18.796000 20.916460 # Cd LIG
159 32 6 0.000000 7.248000 41.359001 21.955460 # H LIG
160 32 6 0.000000 20.305000 18.743999 21.955460 # H LIG
161 21 9 0.000000 6.149000 39.292999 22.550461 # Ob LIG
162 22 9 0.000000 19.205999 16.677999 22.550461 # Ob LIG
163 21 8 0.000000 4.882000 38.423000 20.933460 # Oa LIG
164 22 8 0.000000 17.938000 15.808000 20.933460 # Oa LIG
165 32 3 0.000000 6.959000 42.521000 18.773460 # Cb LIG
166 32 3 0.000000 20.016001 19.906000 18.773460 # Cb LIG
167 32 4 0.000000 7.384000 42.484001 20.140461 # Cc LIG
168 32 4 0.000000 20.441000 19.868999 20.140461 # Cc LIG
169 32 5 0.000000 6.125000 41.509998 18.277460 # Cd LIG
170 32 5 0.000000 19.181000 18.895000 18.277460 # Cd LIG
171 32 8 0.000000 8.175000 44.499001 18.260460 # Oa LIG
172 8 8 0.000000 21.232000 21.884001 18.260460 # Oa LIG
173 32 10 0.000000 8.183000 43.410000 20.716461 # Oc LIG
174 32 10 0.000000 21.240000 20.795000 20.716461 # Oc LIG
175 32 10 0.000000 5.668000 36.330002 23.088459 # Oc LIG
176 32 10 0.000000 18.725000 13.715000 23.088459 # Oc LIG
177 32 2 0.000000 7.353000 43.598000 17.833460 # Ca LIG
178 8 2 0.000000 20.409000 20.983000 17.833460 # Ca LIG
179 33 9 0.000000 6.908000 43.627998 23.559460 # Ob LIG
180 34 9 0.000000 19.965000 21.013000 23.559460 # Ob LIG
181 15 8 0.000000 9.602000 45.137001 22.871460 # Oa LIG
182 16 8 0.000000 22.659000 22.521999 22.871460 # Oa LIG
183 19 8 0.000000 4.721000 36.868000 18.627460 # Oa LIG
184 20 8 0.000000 17.778000 14.253000 18.627460 # Oa LIG
185 9 8 0.000000 3.455000 37.785000 23.238461 # Oa LIG
186 10 8 0.000000 16.511000 15.170000 23.238461 # Oa LIG
187 32 10 0.000000 2.515000 22.156000 23.088459 # Oc LIG
188 32 10 0.000000 15.572000 44.771000 23.088459 # Oc LIG
189 32 4 0.000000 1.314000 22.385000 23.664459 # Cc LIG
190 32 4 0.000000 14.371000 45.000000 23.664459 # Cc LIG
191 15 2 0.000000 10.794000 44.875000 22.444460 # Ca LIG
192 16 2 0.000000 23.851000 22.260000 22.444460 # Ca LIG
193 32 3 0.000000 11.924000 45.073002 23.384460 # Cb LIG
194 16 3 0.000000 24.980000 22.458000 23.384460 # Cb LIG
195 32 5 0.000000 0.159000 22.240999 22.889460 # Cd LIG
196 32 5 0.000000 13.216000 44.855999 22.889460 # Cd LIG
197 32 6 0.000000 0.271000 21.941000 21.849461 # H LIG
198 32 6 0.000000 13.328000 44.556000 21.849461 # H LIG
199 15 9 0.000000 10.990000 44.474998 21.254459 # Ob LIG
200 16 9 0.000000 24.047001 21.860001 21.254459 # Ob LIG
201 32 4 0.000000 6.070000 35.174999 23.664459 # Cc LIG
202 32 4 0.000000 19.127001 12.560000 23.664459 # Cc LIG
203 11 2 0.000000 7.967000 32.139999 22.444460 # Ca LIG
204 12 2 0.000000 21.024000 9.525000 22.444460 # Ca LIG
205 32 3 0.000000 7.231000 33.020000 23.384460 # Cb LIG
206 32 3 0.000000 20.288000 10.405000 23.384460 # Cb LIG
207 32 5 0.000000 6.773000 34.248001 22.889460 # Cd LIG
208 32 5 0.000000 19.830000 11.633000 22.889460 # Cd LIG
209 32 6 0.000000 6.977000 34.494999 21.849461 # H LIG
210 32 6 0.000000 20.033001 11.880000 21.849461 # H LIG
211 11 9 0.000000 8.216000 32.509998 21.254459 # Ob LIG
212 12 9 0.000000 21.273001 9.895000 21.254459 # Ob LIG
213 32 10 0.000000 10.541000 30.612000 20.716461 # Oc LIG
214 32 10 0.000000 23.598000 7.997000 20.716461 # Oc LIG
215 19 2 0.000000 5.090000 35.705002 19.055460 # Ca LIG
216 20 2 0.000000 18.146000 13.090000 19.055460 # Ca LIG
217 32 3 0.000000 5.826000 34.825001 18.115459 # Cb LIG
218 32 3 0.000000 18.882000 12.210000 18.115459 # Cb LIG
219 32 5 0.000000 6.284000 33.597000 18.610460 # Cd LIG
220 32 5 0.000000 19.341000 10.982000 18.610460 # Cd LIG
221 32 6 0.000000 6.080000 33.349998 19.650459 # H LIG
222 32 6 0.000000 19.136999 10.735000 19.650459 # H LIG
223 19 9 0.000000 4.841000 35.334999 20.245461 # Ob LIG
224 20 9 0.000000 17.898001 12.720000 20.245461 # Ob LIG
225 32 10 0.000000 2.515000 37.233002 20.783461 # Oc LIG
226 32 10 0.000000 15.572000 14.618000 20.783461 # Oc LIG
227 35 9 0.000000 2.067000 38.446999 17.939461 # Ob LIG
228 36 9 0.000000 15.124000 15.832000 17.939461 # Ob LIG
229 9 2 0.000000 2.263000 38.046001 23.666460 # Ca LIG
230 10 2 0.000000 15.320000 15.431000 23.666460 # Ca LIG
231 32 3 0.000000 1.133000 37.848999 22.726460 # Cb LIG
232 32 3 0.000000 14.190000 15.234000 22.726460 # Cb LIG
233 32 4 0.000000 1.314000 37.462002 21.358459 # Cc LIG
234 32 4 0.000000 14.371000 14.847000 21.358459 # Cc LIG
235 32 5 0.000000 12.898000 15.451000 23.221460 # Cd LIG
236 32 5 0.000000 25.954000 38.066002 23.221460 # Cd LIG
237 37 6 0.000000 12.785000 15.751000 17.344460 # H LIG
238 38 6 0.000000 25.841999 38.366001 17.344460 # H LIG
239 5 2 0.000000 10.794000 14.722000 20.138460 # Ca LIG
240 6 2 0.000000 23.851000 37.337002 20.138460 # Ca LIG
241 32 3 0.000000 11.924000 14.919000 21.078461 # Cb LIG
242 32 3 0.000000 24.980000 37.534000 21.078461 # Cb LIG
243 32 4 0.000000 11.743000 15.306000 22.446461 # Cc LIG
244 32 4 0.000000 24.799000 37.921001 22.446461 # Cc LIG
245 32 5 0.000000 0.159000 37.317001 20.583460 # Cd LIG
246 32 5 0.000000 13.216000 14.702000 20.583460 # Cd LIG
247 32 6 0.000000 0.272000 37.016998 19.543461 # H LIG
248 32 6 0.000000 13.328000 14.402000 19.543461 # H LIG
249 5 9 0.000000 10.990000 14.322000 18.948460 # Ob LIG
250 6 9 0.000000 24.047001 36.937000 18.948460 # Ob LIG
251 32 10 0.000000 10.541000 15.535000 23.021460 # Oc LIG
252 32 10 0.000000 23.598000 38.150002 23.021460 # Oc LIG
253 39 9 0.000000 4.841000 5.182000 17.939461 # Ob LIG
254 40 9 0.000000 17.898001 27.797001 17.939461 # Ob LIG
255 32 10 0.000000 2.515000 7.080000 18.477459 # Oc LIG
256 32 10 0.000000 15.572000 29.695000 18.477459 # Oc LIG
257 1 2 0.000000 5.090000 5.552000 23.666460 # Ca LIG
258 2 2 0.000000 18.146000 28.167000 23.666460 # Ca LIG
259 32 3 0.000000 5.826000 4.672000 22.726460 # Cb LIG
260 32 3 0.000000 18.882000 27.287001 22.726460 # Cb LIG
261 31 4 0.000000 6.070000 5.022000 21.358459 # Cc LIG
262 32 4 0.000000 19.127001 27.636999 21.358459 # Cc LIG
263 32 5 0.000000 6.284000 3.444000 23.221460 # Cd LIG
264 32 5 0.000000 19.340000 26.059000 23.221460 # Cd LIG
265 41 6 0.000000 6.080000 3.197000 17.344460 # H LIG
266 42 6 0.000000 19.136999 25.812000 17.344460 # H LIG
267 32 2 0.000000 7.967000 1.987000 20.138460 # Ca LIG
268 18 2 0.000000 21.024000 24.601999 20.138460 # Ca LIG
269 31 3 0.000000 7.231000 2.866000 21.078461 # Cb LIG
270 32 3 0.000000 20.288000 25.481001 21.078461 # Cb LIG
271 32 4 0.000000 6.987000 2.516000 22.446461 # Cc LIG
272 32 4 0.000000 20.042999 25.131001 22.446461 # Cc LIG
273 31 5 0.000000 6.773000 4.094000 20.583460 # Cd LIG
274 32 5 0.000000 19.830000 26.709000 20.583460 # Cd LIG
275 31 6 0.000000 6.977000 4.341000 19.543461 # H LIG
276 32 6 0.000000 20.033001 26.955999 19.543461 # H LIG
277 32 9 0.000000 8.216000 2.357000 18.948460 # Ob LIG
278 18 9 0.000000 21.273001 24.972000 18.948460 # Ob LIG
279 1 2 0.000000 2.263000 7.893000 21.360460 # Ca LIG
280 2 2 0.000000 15.320000 30.507999 21.360460 # Ca LIG
281 32 3 0.000000 1.133000 7.696000 20.421459 # Cb LIG
282 32 3 0.000000 14.190000 30.311001 20.421459 # Cb LIG
283 32 4 0.000000 1.314000 7.309000 19.053459 # Cc LIG
284 32 4 0.000000 14.371000 29.924000 19.053459 # Cc LIG
285 32 5 0.000000 12.898000 30.528000 20.916460 # Cd LIG
286 32 5 0.000000 25.954000 7.913000 20.916460 # Cd LIG
287 32 6 0.000000 12.785000 30.827999 21.955460 # H LIG
288 32 6 0.000000 25.841999 8.213000 21.955460 # H LIG
289 1 9 0.000000 2.067000 8.293000 22.550461 # Ob LIG
290 2 9 0.000000 15.124000 30.908001 22.550461 # Ob LIG
291 32 3 0.000000 11.924000 29.996000 18.773460 # Cb LIG
292 32 3 0.000000 24.980000 7.381000 18.773460 # Cb LIG
293 32 4 0.000000 11.743000 30.382999 20.140461 # Cc LIG
294 32 4 0.000000 24.799000 7.768000 20.140461 # Cc LIG
295 32 5 0.000000 0.159000 7.164000 18.277460 # Cd LIG
296 32 5 0.000000 13.216000 29.778999 18.277460 # Cd LIG
297 13 2 0.000000 10.794000 29.799000 17.833460 # Ca LIG
298 14 2 0.000000 23.851000 7.184000 17.833460 # Ca LIG
299 43 9 0.000000 10.990000 29.398001 23.559460 # Ob LIG
300 44 9 0.000000 24.047001 6.783000 23.559460 # Ob LIG
301 25 2 0.000000 5.090000 20.628000 21.360460 # Ca LIG
302 32 2 0.000000 18.146000 43.243000 21.360460 # Ca LIG
303 32 3 0.000000 5.826000 19.749001 20.421459 # Cb LIG
304 32 3 0.000000 18.882000 42.363998 20.421459 # Cb LIG
305 32 4 0.000000 6.070000 20.099001 19.053459 # Cc LIG
306 32 4 0.000000 19.127001 42.714001 19.053459 # Cc LIG
307 32 5 0.000000 6.284000 18.521000 20.916460 # Cd LIG
308 32 5 0.000000 19.341000 41.136002 20.916460 # Cd LIG
309 32 6 0.000000 6.080000 18.274000 21.955460 # H LIG
310 32 6 0.000000 19.136999 40.889000 21.955460 # H LIG
311 25 9 0.000000 4.841000 20.257999 22.550461 # Ob LIG
312 32 9 0.000000 17.898001 42.873001 22.550461 # Ob LIG
313 32 3 0.000000 7.231000 17.943001 18.773460 # Cb LIG
314 32 3 0.000000 20.288000 40.557999 18.773460 # Cb LIG
315 32 4 0.000000 6.987000 17.593000 20.140461 # Cc LIG
316 32 4 0.000000 20.042999 40.208000 20.140461 # Cc LIG
317 32 5 0.000000 6.773000 19.171000 18.277460 # Cd LIG
318 32 5 0.000000 19.830000 41.785999 18.277460 # Cd LIG
319 3 2 0.000000 7.967000 17.063000 17.833460 # Ca LIG
320 4 2 0.000000 21.024000 39.678001 17.833460 # Ca LIG
321 45 9 0.000000 8.216000 17.433001 23.559460 # Ob LIG
322 46 9 0.000000 21.273001 40.048000 23.559460 # Ob LIG
323 47 9 0.000000 6.149000 24.216999 17.939461 # Ob LIG
324 48 9 0.000000 19.205999 1.602000 17.939461 # Ob LIG
325 23 8 0.000000 3.455000 22.708000 18.627460 # Oa LIG
326 24 8 0.000000 16.511000 0.093000 18.627460 # Oa LIG
327 32 10 0.000000 4.874000 24.434999 20.783461 # Oc LIG
328 32 10 0.000000 17.930000 1.820000 20.783461 # Oc LIG
329 5 2 0.000000 5.704000 24.247000 23.666460 # Ca LIG
330 32 2 0.000000 18.761000 1.632000 23.666460 # Ca LIG
331 32 3 0.000000 6.098000 25.323999 22.726460 # Cb LIG
332 32 3 0.000000 19.155001 2.709000 22.726460 # Cb LIG
333 32 4 0.000000 5.672000 25.361000 21.358459 # Cc LIG
334 32 4 0.000000 18.729000 2.746000 21.358459 # Cc LIG
335 32 5 0.000000 6.932000 26.334999 23.221460 # Cd LIG
336 32 5 0.000000 19.989000 3.720000 23.221460 # Cd LIG
337 49 6 0.000000 7.248000 26.282000 17.344460 # H LIG
338 50 6 0.000000 20.305000 3.667000 17.344460 # H LIG
339 5 8 0.000000 4.881000 23.346001 23.238461 # Oa LIG
340 32 8 0.000000 17.938000 0.731000 23.238461 # Oa LIG
341 9 2 0.000000 7.353000 28.521000 20.138460 # Ca LIG
342 10 2 0.000000 20.409000 5.906000 20.138460 # Ca LIG
343 32 3 0.000000 6.959000 27.444000 21.078461 # Cb LIG
344 32 3 0.000000 20.016001 4.829000 21.078461 # Cb LIG
345 32 4 0.000000 7.384000 27.407000 22.446461 # Cc LIG
346 32 4 0.000000 20.441000 4.792000 22.446461 # Cc LIG
347 32 5 0.000000 6.125000 26.434000 20.583460 # Cd LIG
348 32 5 0.000000 19.181000 3.819000 20.583460 # Cd LIG
349 32 6 0.000000 5.809000 26.486000 19.543461 # H LIG
350 32 6 0.000000 18.865999 3.871000 19.543461 # H LIG
351 9 9 0.000000 6.908000 28.552000 18.948460 # Ob LIG
352 10 9 0.000000 19.965000 5.937000 18.948460 # Ob LIG
353 9 8 0.000000 8.175000 29.422001 20.566460 # Oa LIG
354 10 8 0.000000 21.232000 6.807000 20.566460 # Oa LIG
355 32 10 0.000000 8.183000 28.333000 23.021460 # Oc LIG
356 32 10 0.000000 21.240000 5.718000 23.021460 # Oc LIG
357 23 2 0.000000 2.263000 22.969999 19.055460 # Ca LIG
358 24 2 0.000000 15.320000 0.355000 19.055460 # Ca LIG
359 23 3 0.000000 1.133000 22.771999 18.115459 # Cb LIG
360 32 3 0.000000 14.190000 0.157000 18.115459 # Cb LIG
361 32 5 0.000000 12.898000 0.374000 18.610460 # Cd LIG
362 32 5 0.000000 25.954000 22.989000 18.610460 # Cd LIG
363 32 6 0.000000 12.785000 0.674000 19.650459 # H LIG
364 32 6 0.000000 25.841999 23.289000 19.650459 # H LIG
365 23 9 0.000000 2.067000 23.370001 20.245461 # Ob LIG
366 24 9 0.000000 15.124000 0.755000 20.245461 # Ob LIG
367 32 10 0.000000 7.389000 31.514999 18.410460 # Oc LIG
368 32 10 0.000000 20.445999 8.900000 18.410460 # Oc LIG
369 51 6 0.000000 5.809000 41.563000 24.154461 # H LIG
370 52 6 0.000000 18.865999 18.948000 24.154461 # H LIG
371 32 10 0.000000 10.541000 0.459000 18.410460 # Oc LIG
372 32 10 0.000000 23.598000 23.073999 18.410460 # Oc LIG
373 32 4 0.000000 11.743000 0.230000 17.835461 # Cc LIG
374 32 4 0.000000 24.799999 22.844999 17.835461 # Cc LIG
375 32 4 0.000000 6.986000 32.669998 17.835461 # Cc LIG
376 32 4 0.000000 20.042999 10.055000 17.835461 # Cc LIG
377 53 6 0.000000 0.271000 6.864000 24.154461 # H LIG
378 54 6 0.000000 13.328000 29.479000 24.154461 # H LIG
379 55 6 0.000000 6.977000 19.417999 24.154461 # H LIG
380 56 6 0.000000 20.033001 42.033001 24.154461 # H LIG
381 1 7 0.000000 5.314000 7.966000 0.934500 # Mg LIG
382 2 7 0.000000 18.371000 30.580999 0.934500 # Mg LIG
383 3 7 0.000000 4.242000 6.491000 26.295460 # Mg LIG
384 4 7 0.000000 17.299000 29.106001 26.295460 # Mg LIG
385 1 7 0.000000 3.501000 8.158000 3.240500 # Mg LIG
386 2 7 0.000000 16.558001 30.773001 3.240500 # Mg LIG
387 5 7 0.000000 7.743000 14.649000 26.732460 # Mg LIG
388 6 7 0.000000 20.799000 37.264000 26.732460 # Mg LIG
389 7 7 0.000000 8.815000 16.124001 1.370500 # Mg LIG
390 8 7 0.000000 21.872000 38.738998 1.370500 # Mg LIG
391 3 7 0.000000 9.556000 14.457000 24.426460 # Mg LIG
392 4 7 0.000000 22.613001 37.071999 24.426460 # Mg LIG
393 9 7 0.000000 8.815000 31.200001 26.732460 # Mg LIG
394 10 7 0.000000 21.872000 8.585000 26.732460 # Mg LIG
395 11 7 0.000000 9.556000 29.534000 1.370500 # Mg LIG
396 12 7 0.000000 22.613001 6.919000 1.370500 # Mg LIG
397 5 7 0.000000 4.242000 21.568001 3.240500 # Mg LIG
398 13 7 0.000000 17.299000 44.182999 3.240500 # Mg LIG
399 14 7 0.000000 8.815000 1.047000 24.426460 # Mg LIG
400 8 7 0.000000 21.872000 23.662001 24.426460 # Mg LIG
401 9 7 0.000000 5.314000 38.118999 3.240500 # Mg LIG
402 10 7 0.000000 18.371000 15.504000 3.240500 # Mg LIG
403 15 7 0.000000 7.743000 44.801998 1.370500 # Mg LIG
404 16 7 0.000000 20.799000 22.187000 1.370500 # Mg LIG
405 17 7 0.000000 9.556000 44.611000 26.732460 # Mg LIG
406 18 7 0.000000 22.613001 21.996000 26.732460 # Mg LIG
407 19 7 0.000000 3.501000 38.311001 26.295460 # Mg LIG
408 20 7 0.000000 16.558001 15.696000 26.295460 # Mg LIG
409 21 7 0.000000 4.242000 36.645000 0.934500 # Mg LIG
410 22 7 0.000000 17.299000 14.030000 0.934500 # Mg LIG
411 23 7 0.000000 5.314000 23.042999 26.295460 # Mg LIG
412 24 7 0.000000 18.371000 0.428000 26.295460 # Mg LIG
413 25 7 0.000000 3.501000 23.233999 0.934500 # Mg LIG
414 26 7 0.000000 16.558001 0.619000 0.934500 # Mg LIG
415 13 7 0.000000 7.743000 29.726000 24.426460 # Mg LIG
416 14 7 0.000000 20.799000 7.111000 24.426460 # Mg LIG
417 3 2 0.000000 5.704000 9.170000 25.972460 # Ca LIG
418 4 2 0.000000 18.761000 31.785000 25.972460 # Ca LIG
419 27 3 0.000000 6.098000 10.247000 25.032459 # Cb LIG
420 28 3 0.000000 19.155001 32.862000 25.032459 # Cb LIG
421 27 5 0.000000 6.932000 11.258000 25.527460 # Cd LIG
422 28 5 0.000000 19.989000 33.873001 25.527460 # Cd LIG
423 27 6 0.000000 7.248000 11.206000 26.567459 # H LIG
424 28 6 0.000000 20.305000 33.820999 26.567459 # H LIG
425 3 9 0.000000 6.149000 9.140000 27.162460 # Ob LIG
426 4 9 0.000000 19.205999 31.754999 27.162460 # Ob LIG
427 3 8 0.000000 4.881000 8.269000 25.544460 # Oa LIG
428 4 8 0.000000 17.938000 30.884001 25.544460 # Oa LIG
429 27 10 0.000000 8.183000 13.257000 25.327459 # Oc LIG
430 28 10 0.000000 21.240000 35.872002 25.327459 # Oc LIG
431 1 8 0.000000 4.721000 6.715000 2.488500 # Oa LIG
432 2 8 0.000000 17.777000 29.330000 2.488500 # Oa LIG
433 1 8 0.000000 3.455000 7.631000 0.183500 # Oa LIG
434 2 8 0.000000 16.511000 30.246000 0.183500 # Oa LIG
435 29 10 0.000000 4.874000 9.358000 2.338500 # Oc LIG
436 30 10 0.000000 17.930000 31.973000 2.338500 # Oc LIG
437 31 10 0.000000 5.668000 6.177000 0.033500 # Oc LIG
438 32 10 0.000000 18.725000 28.792000 0.033500 # Oc LIG
439 29 4 0.000000 5.672000 10.284000 2.914500 # Cc LIG
440 30 4 0.000000 18.729000 32.898998 2.914500 # Cc LIG
441 7 2 0.000000 7.353000 13.445000 1.694500 # Ca LIG
442 8 2 0.000000 20.409000 36.060001 1.694500 # Ca LIG
443 29 3 0.000000 6.959000 12.368000 2.634500 # Cb LIG
444 30 3 0.000000 20.016001 34.983002 2.634500 # Cb LIG
445 27 4 0.000000 7.384000 12.331000 24.752460 # Cc LIG
446 28 4 0.000000 20.441000 34.945999 24.752460 # Cc LIG
447 29 5 0.000000 6.125000 11.357000 2.139500 # Cd LIG
448 30 5 0.000000 19.181000 33.972000 2.139500 # Cd LIG
449 29 6 0.000000 5.809000 11.409000 1.099500 # H LIG
450 30 6 0.000000 18.865999 34.023998 1.099500 # H LIG
451 7 9 0.000000 6.908000 13.475000 0.504500 # Ob LIG
452 8 9 0.000000 19.965000 36.090000 0.504500 # Ob LIG
453 7 8 0.000000 8.175000 14.346000 2.121500 # Oa LIG
454 8 8 0.000000 21.232000 36.960999 2.121500 # Oa LIG
455 3 8 0.000000 8.336000 15.900000 25.177460 # Oa LIG
456 4 8 0.000000 21.393000 38.514999 25.177460 # Oa LIG
457 5 8 0.000000 9.602000 14.984000 27.483459 # Oa LIG
458 6 8 0.000000 22.659000 37.598999 27.483459 # Oa LIG
459 32 10 0.000000 7.389000 16.438000 27.633459 # Oc LIG
460 32 10 0.000000 20.445999 39.053001 27.633459 # Oc LIG
461 13 8 0.000000 9.602000 30.059999 25.177460 # Oa LIG
462 14 8 0.000000 22.659000 7.445000 25.177460 # Oa LIG
463 11 8 0.000000 8.336000 30.976999 2.121500 # Oa LIG
464 12 8 0.000000 21.393000 8.362000 2.121500 # Oa LIG
465 25 8 0.000000 4.721000 21.791000 0.183500 # Oa LIG
466 32 8 0.000000 17.777000 44.405998 0.183500 # Oa LIG
467 32 10 0.000000 5.668000 21.254000 25.394459 # Oc LIG
468 32 10 0.000000 18.725000 43.868999 25.394459 # Oc LIG
469 32 8 0.000000 8.336000 0.824000 27.483459 # Oa LIG
470 18 8 0.000000 21.393000 23.438999 27.483459 # Oa LIG
471 32 10 0.000000 7.389000 1.361000 2.271500 # Oc LIG
472 32 10 0.000000 20.445999 23.976000 2.271500 # Oc LIG
473 32 10 0.000000 4.874000 39.512001 25.394459 # Oc LIG
474 32 10 0.000000 17.930000 16.896999 25.394459 # Oc LIG
475 21 2 0.000000 5.704000 39.324001 0.610500 # Ca LIG
476 22 2 0.000000 18.761000 16.709000 0.610500 # Ca LIG
477 32 3 0.000000 6.098000 40.401001 27.338459 # Cb LIG
478 32 3 0.000000 19.155001 17.785999 27.338459 # Cb LIG
479 32 4 0.000000 5.672000 40.438000 25.970459 # Cc LIG
480 32 4 0.000000 18.729000 17.823000 25.970459 # Cc LIG
481 32 5 0.000000 6.932000 41.410999 0.166500 # Cd LIG
482 32 5 0.000000 19.989000 18.796000 0.166500 # Cd LIG
483 32 6 0.000000 7.248000 41.359001 1.205500 # H LIG
484 32 6 0.000000 20.305000 18.743999 1.205500 # H LIG
485 21 9 0.000000 6.149000 39.292999 1.800500 # Ob LIG
486 22 9 0.000000 19.205999 16.677999 1.800500 # Ob LIG
487 21 8 0.000000 4.882000 38.423000 0.183500 # Oa LIG
488 22 8 0.000000 17.938000 15.808000 0.183500 # Oa LIG
489 32 3 0.000000 6.959000 42.521000 25.690460 # Cb LIG
490 32 3 0.000000 20.016001 19.906000 25.690460 # Cb LIG
491 32 4 0.000000 7.384000 42.484001 27.057461 # Cc LIG
492 32 4 0.000000 20.441000 19.868999 27.057461 # Cc LIG
493 32 5 0.000000 6.125000 41.509998 25.194460 # Cd LIG
494 32 5 0.000000 19.181000 18.895000 25.194460 # Cd LIG
495 32 8 0.000000 8.175000 44.499001 25.177460 # Oa LIG
496 8 8 0.000000 21.232000 21.884001 25.177460 # Oa LIG
497 32 10 0.000000 8.183000 43.410000 27.633459 # Oc LIG
498 32 10 0.000000 21.240000 20.795000 27.633459 # Oc LIG
499 32 10 0.000000 5.668000 36.330002 2.338500 # Oc LIG
500 32 10 0.000000 18.725000 13.715000 2.338500 # Oc LIG
501 32 2 0.000000 7.353000 43.598000 24.750460 # Ca LIG
502 8 2 0.000000 20.409000 20.983000 24.750460 # Ca LIG
503 33 9 0.000000 6.908000 43.627998 2.809500 # Ob LIG
504 34 9 0.000000 19.965000 21.013000 2.809500 # Ob LIG
505 15 8 0.000000 9.602000 45.137001 2.121500 # Oa LIG
506 16 8 0.000000 22.659000 22.521999 2.121500 # Oa LIG
507 19 8 0.000000 4.721000 36.868000 25.544460 # Oa LIG
508 20 8 0.000000 17.778000 14.253000 25.544460 # Oa LIG
509 9 8 0.000000 3.455000 37.785000 2.488500 # Oa LIG
510 10 8 0.000000 16.511000 15.170000 2.488500 # Oa LIG
511 32 10 0.000000 2.515000 22.156000 2.338500 # Oc LIG
512 32 10 0.000000 15.572000 44.771000 2.338500 # Oc LIG
513 32 4 0.000000 1.314000 22.385000 2.914500 # Cc LIG
514 32 4 0.000000 14.371000 45.000000 2.914500 # Cc LIG
515 15 2 0.000000 10.794000 44.875000 1.694500 # Ca LIG
516 16 2 0.000000 23.851000 22.260000 1.694500 # Ca LIG
517 32 3 0.000000 11.924000 45.073002 2.634500 # Cb LIG
518 16 3 0.000000 24.980000 22.458000 2.634500 # Cb LIG
519 32 5 0.000000 0.159000 22.240999 2.139500 # Cd LIG
520 32 5 0.000000 13.216000 44.855999 2.139500 # Cd LIG
521 32 6 0.000000 0.271000 21.941000 1.099500 # H LIG
522 32 6 0.000000 13.328000 44.556000 1.099500 # H LIG
523 15 9 0.000000 10.990000 44.474998 0.504500 # Ob LIG
524 16 9 0.000000 24.047001 21.860001 0.504500 # Ob LIG
525 32 4 0.000000 6.070000 35.174999 2.914500 # Cc LIG
526 32 4 0.000000 19.127001 12.560000 2.914500 # Cc LIG
527 11 2 0.000000 7.967000 32.139999 1.694500 # Ca LIG
528 12 2 0.000000 21.024000 9.525000 1.694500 # Ca LIG