LAMMPS data file. CGCMM style. atom_style full generated by VMD/TopoTools v1.5 on Sun Mar 05 19:09:45 PST 2017
 1331 atoms
 0 bonds
 0 angles
 0 dihedrals
 0 impropers
 10 atom types
 0 bond types
 0 angle types
 0 dihedral types
 0 improper types
 0.439550 26.456750  xlo xhi
 0.332838 45.395937  ylo yhi
 -0.387750 26.927729  zlo zhi

# Pair Coeffs
#
# 1  CH4
# 2  Ca
# 3  Cb
# 4  Cc
# 5  Cd
# 6  H
# 7  Ni
# 8  Oa
# 9  Ob
# 10  Oc

 Masses

 1 16.040001 # CH4
 2 12.011000 # Ca
 3 12.011000 # Cb
 4 12.011000 # Cc
 5 12.011000 # Cd
 6 1.008000 # H
 7 58.693001 # Ni
 8 15.999000 # Oa
 9 15.999000 # Ob
 10 15.999000 # Oc

 Atoms

1 1 1 0.000000 26.017300 45.062775 15.175000 # CH4 
2 1 1 0.000000 26.017300 45.062775 18.210001 # CH4 
3 1 1 0.000000 26.017300 45.062775 21.245001 # CH4 
4 1 1 0.000000 26.017300 45.062775 24.280001 # CH4 
5 1 1 0.000000 26.017300 45.062775 0.000000 # CH4 
6 1 1 0.000000 26.017300 45.062775 3.035000 # CH4 
7 1 1 0.000000 26.017300 45.062775 6.070000 # CH4 
8 1 1 0.000000 26.017300 45.062775 9.105000 # CH4 
9 1 1 0.000000 26.017300 45.062775 12.140000 # CH4 
10 1 1 0.000000 26.017300 22.531775 15.175000 # CH4 
11 1 1 0.000000 26.017300 22.531775 18.210001 # CH4 
12 1 1 0.000000 26.017300 22.531775 21.245001 # CH4 
13 1 1 0.000000 26.017300 22.531775 24.280001 # CH4 
14 1 1 0.000000 26.017300 22.531775 0.000000 # CH4 
15 1 1 0.000000 26.017300 22.531775 3.035000 # CH4 
16 1 1 0.000000 26.017300 22.531775 6.070000 # CH4 
17 1 1 0.000000 26.017300 22.531775 9.105000 # CH4 
18 1 1 0.000000 26.017300 22.531775 12.140000 # CH4 
19 1 1 0.000000 13.008301 45.062775 15.175000 # CH4 
20 1 1 0.000000 13.008301 45.062775 18.210001 # CH4 
21 1 1 0.000000 13.008301 45.062775 21.245001 # CH4 
22 1 1 0.000000 13.008301 45.062775 24.280001 # CH4 
23 1 1 0.000000 13.008301 45.062775 0.000000 # CH4 
24 1 1 0.000000 13.008301 45.062775 3.035000 # CH4 
25 1 1 0.000000 13.008301 45.062775 6.070000 # CH4 
26 1 1 0.000000 13.008301 45.062775 9.105000 # CH4 
27 1 1 0.000000 13.008301 45.062775 12.140000 # CH4 
28 1 1 0.000000 13.008301 22.531775 15.175000 # CH4 
29 1 1 0.000000 13.008301 22.531775 18.210001 # CH4 
30 1 1 0.000000 13.008301 22.531775 21.245001 # CH4 
31 1 1 0.000000 13.008301 22.531775 24.280001 # CH4 
32 1 1 0.000000 13.008301 22.531775 0.000000 # CH4 
33 1 1 0.000000 13.008301 22.531775 3.035000 # CH4 
34 1 1 0.000000 13.008301 22.531775 6.070000 # CH4 
35 1 1 0.000000 13.008301 22.531775 9.105000 # CH4 
36 1 9 0.000000 23.941000 21.823999 20.945980 # Ob LIG
37 2 9 0.000000 10.932000 44.355999 20.945980 # Ob LIG
38 3 9 0.000000 23.941000 6.803000 23.221979 # Ob LIG
39 4 9 0.000000 10.932000 29.334000 23.221979 # Ob LIG
40 5 10 0.000000 23.514999 7.995000 20.491980 # Oc LIG
41 6 10 0.000000 10.506000 30.527000 20.491980 # Oc LIG
42 1 8 0.000000 22.554001 7.442000 18.022980 # Oa LIG
43 2 8 0.000000 9.546000 29.973000 18.022980 # Oa LIG
44 1 8 0.000000 22.554001 22.462999 22.575979 # Oa LIG
45 2 8 0.000000 9.546000 44.993999 22.575979 # Oa LIG
46 3 8 0.000000 21.304001 8.301000 22.575979 # Oa LIG
47 4 8 0.000000 8.295000 30.833000 22.575979 # Oa LIG
48 3 9 0.000000 21.164000 9.821000 20.945980 # Ob LIG
49 4 9 0.000000 8.155000 32.353001 20.945980 # Ob LIG
50 7 10 0.000000 21.184000 20.701000 20.491980 # Oc LIG
51 8 10 0.000000 8.176000 43.233002 20.491980 # Oc LIG
52 3 8 0.000000 21.184999 21.809999 18.022980 # Oa LIG
53 2 8 0.000000 8.176000 44.341000 18.022980 # Oa LIG
54 1 9 0.000000 19.938000 20.927999 23.221979 # Ob LIG
55 2 9 0.000000 6.930000 43.459999 23.221979 # Ob LIG
56 9 9 0.000000 19.087999 16.624001 22.302979 # Ob LIG
57 10 9 0.000000 6.079000 39.155998 22.302979 # Ob LIG
58 11 10 0.000000 18.681999 13.676000 22.756979 # Oc LIG
59 12 10 0.000000 5.673000 36.207001 22.756979 # Oc LIG
60 9 8 0.000000 17.841000 15.743000 20.672979 # Oa LIG
61 10 8 0.000000 4.833000 38.275002 20.672979 # Oa LIG
62 13 10 0.000000 17.841999 16.851000 18.204979 # Oc LIG
63 14 10 0.000000 4.833000 39.382999 18.204979 # Oc LIG
64 15 10 0.000000 10.506000 0.485000 18.214979 # Oc LIG
65 4 10 0.000000 23.514999 23.017000 18.214979 # Oc LIG
66 16 10 0.000000 10.506000 15.506000 22.767979 # Oc LIG
67 17 10 0.000000 23.514999 38.036999 22.767979 # Oc LIG
68 18 9 0.000000 10.932000 14.313000 18.668980 # Ob LIG
69 19 9 0.000000 23.941000 36.845001 18.668980 # Ob LIG
70 20 9 0.000000 15.085000 0.708000 20.026979 # Ob LIG
71 21 9 0.000000 2.076000 23.239000 20.026979 # Ob LIG
72 22 9 0.000000 15.085000 15.729000 17.750980 # Ob LIG
73 23 9 0.000000 2.077000 38.259998 17.750980 # Ob LIG
74 24 10 0.000000 15.511000 14.536000 20.480980 # Oc LIG
75 25 10 0.000000 2.503000 37.068001 20.480980 # Oc LIG
76 5 8 0.000000 16.471001 15.090000 22.948978 # Oa LIG
77 6 8 0.000000 3.463000 37.620998 22.948978 # Oa LIG
78 20 8 0.000000 16.471001 0.069000 18.396980 # Oa LIG
79 21 8 0.000000 3.463000 22.601000 18.396980 # Oa LIG
80 22 8 0.000000 17.722000 14.230000 18.396980 # Oa LIG
81 23 8 0.000000 4.713000 36.762001 18.396980 # Oa LIG
82 22 9 0.000000 17.862000 12.710000 20.026979 # Ob LIG
83 23 9 0.000000 4.853000 35.242001 20.026979 # Ob LIG
84 26 10 0.000000 17.841000 1.831000 20.480980 # Oc LIG
85 27 10 0.000000 4.833000 24.362000 20.480980 # Oc LIG
86 20 8 0.000000 17.841000 0.722000 22.948978 # Oa LIG
87 28 8 0.000000 4.833000 23.254000 22.948978 # Oa LIG
88 20 9 0.000000 19.087000 1.603000 17.750980 # Ob LIG
89 21 9 0.000000 6.079000 24.135000 17.750980 # Ob LIG
90 28 9 0.000000 19.938000 5.907000 18.668980 # Ob LIG
91 28 9 0.000000 6.930000 28.438999 18.668980 # Ob LIG
92 28 9 0.000000 2.076000 8.218000 22.302979 # Ob LIG
93 28 9 0.000000 15.085000 30.750000 22.302979 # Ob LIG
94 28 10 0.000000 2.503000 7.026000 18.204979 # Oc LIG
95 28 10 0.000000 15.511000 29.556999 18.204979 # Oc LIG
96 28 10 0.000000 2.503000 22.047001 22.756979 # Oc LIG
97 28 10 0.000000 15.511000 44.577999 22.756979 # Oc LIG
98 28 10 0.000000 20.344000 8.856000 18.215981 # Oc LIG
99 28 10 0.000000 7.336000 31.388000 18.215981 # Oc LIG
100 28 8 0.000000 21.184999 6.789000 20.299980 # Oa LIG
101 28 8 0.000000 8.176000 29.320000 20.299980 # Oa LIG
102 28 10 0.000000 21.184000 5.680000 22.767979 # Oc LIG
103 28 10 0.000000 8.176000 28.212000 22.767979 # Oc LIG
104 28 8 0.000000 3.463000 7.579000 20.672979 # Oa LIG
105 28 8 0.000000 16.471001 30.111000 20.672979 # Oa LIG
106 28 8 0.000000 4.713000 6.720000 22.948978 # Oa LIG
107 28 8 0.000000 17.722000 29.250999 22.948978 # Oa LIG
108 28 8 0.000000 4.713000 21.740999 20.672979 # Oa LIG
109 28 8 0.000000 17.722000 44.271999 20.672979 # Oa LIG
110 28 9 0.000000 4.853000 5.200000 17.750980 # Ob LIG
111 28 9 0.000000 17.862000 27.731001 17.750980 # Ob LIG
112 28 9 0.000000 4.853000 20.221001 22.302979 # Ob LIG
113 28 9 0.000000 17.862000 42.751999 22.302979 # Ob LIG
114 28 10 0.000000 4.833000 9.341000 22.756979 # Oc LIG
115 28 10 0.000000 17.841000 31.872999 22.756979 # Oc LIG
116 28 8 0.000000 4.833000 8.232000 18.396980 # Oa LIG
117 28 8 0.000000 17.841000 30.764000 18.396980 # Oa LIG
118 28 10 0.000000 5.673000 6.165000 20.480980 # Oc LIG
119 28 10 0.000000 18.681999 28.697001 20.480980 # Oc LIG
120 28 10 0.000000 5.673000 21.186001 18.204979 # Oc LIG
121 28 10 0.000000 18.681000 43.717999 18.204979 # Oc LIG
122 28 9 0.000000 6.079000 9.114000 20.026979 # Ob LIG
123 28 9 0.000000 19.087000 31.645000 20.026979 # Ob LIG
124 28 9 0.000000 6.930000 13.418000 20.945980 # Ob LIG
125 28 9 0.000000 19.938000 35.949001 20.945980 # Ob LIG
126 28 10 0.000000 7.336000 1.345000 22.767979 # Oc LIG
127 28 10 0.000000 20.344000 23.877001 22.767979 # Oc LIG
128 28 10 0.000000 7.336000 16.365999 20.491980 # Oc LIG
129 28 10 0.000000 20.344000 38.897999 20.491980 # Oc LIG
130 28 8 0.000000 8.176000 14.299000 22.575979 # Oa LIG
131 28 8 0.000000 21.184999 36.831001 22.575979 # Oa LIG
132 28 10 0.000000 8.176000 13.190000 18.214979 # Oc LIG
133 28 10 0.000000 21.184000 35.722000 18.214979 # Oc LIG
134 28 9 0.000000 8.155000 2.311000 18.668980 # Ob LIG
135 28 9 0.000000 21.164000 24.841999 18.668980 # Ob LIG
136 28 9 0.000000 8.155000 17.332001 23.221979 # Ob LIG
137 28 9 0.000000 21.164000 39.862999 23.221979 # Ob LIG
138 28 8 0.000000 8.296000 0.791000 20.299980 # Oa LIG
139 28 8 0.000000 21.304001 23.322001 20.299980 # Oa LIG
140 28 8 0.000000 8.295000 15.812000 18.022980 # Oa LIG
141 28 8 0.000000 21.304001 38.342999 18.022980 # Oa LIG
142 18 8 0.000000 9.546000 14.952000 20.299980 # Oa LIG
143 19 8 0.000000 22.554001 37.484001 20.299980 # Oa LIG
144 5 5 0.000000 25.868000 7.878000 20.672979 # Cd LIG
145 6 5 0.000000 12.860000 30.409000 20.672979 # Cd LIG
146 5 3 0.000000 24.879999 7.373000 18.527981 # Cb LIG
147 28 3 0.000000 11.871000 29.905001 18.527981 # Cb LIG
148 1 3 0.000000 24.879999 22.393999 23.080978 # Cb LIG
149 28 3 0.000000 11.871000 44.925999 23.080978 # Cb LIG
150 5 4 0.000000 24.708000 7.749000 19.900980 # Cc LIG
151 6 4 0.000000 11.699000 30.280001 19.900980 # Cc LIG
152 1 2 0.000000 23.745001 22.209999 22.137980 # Ca LIG
153 2 2 0.000000 10.736000 44.741001 22.137980 # Ca LIG
154 1 2 0.000000 23.745001 7.188000 17.585979 # Ca LIG
155 2 2 0.000000 10.736000 29.719999 17.585979 # Ca LIG
156 3 2 0.000000 20.927999 9.459000 22.137980 # Ca LIG
157 4 2 0.000000 7.919000 31.990999 22.137980 # Ca LIG
158 7 4 0.000000 20.374001 19.791000 19.900980 # Cc LIG
159 8 4 0.000000 7.365000 42.323002 19.900980 # Cc LIG
160 3 2 0.000000 20.370001 20.905001 17.585979 # Ca LIG
161 2 2 0.000000 7.361000 43.437000 17.585979 # Ca LIG
162 11 3 0.000000 20.201000 10.350000 23.080978 # Cb LIG
163 12 3 0.000000 7.192000 32.881001 23.080978 # Cb LIG
164 13 3 0.000000 19.962999 19.830000 18.527981 # Cb LIG
165 14 3 0.000000 6.954000 42.362000 18.527981 # Cb LIG
166 7 5 0.000000 19.905001 18.722000 20.672979 # Cd LIG
167 8 5 0.000000 6.897000 41.252998 20.672979 # Cd LIG
168 11 5 0.000000 19.757000 11.578000 22.575979 # Cd LIG
169 12 5 0.000000 6.749000 34.110001 22.575979 # Cd LIG
170 13 5 0.000000 19.120001 18.830999 18.022980 # Cd LIG
171 14 5 0.000000 6.112000 41.362999 18.022980 # Cd LIG
172 7 3 0.000000 19.063000 17.723000 20.167980 # Cb LIG
173 8 3 0.000000 6.055000 40.254002 20.167980 # Cb LIG
174 11 4 0.000000 19.065001 12.519000 23.347980 # Cc LIG
175 12 4 0.000000 6.056000 35.050999 23.347980 # Cc LIG
176 9 2 0.000000 18.656000 16.646999 21.110979 # Ca LIG
177 10 2 0.000000 5.647000 39.179001 21.110979 # Ca LIG
178 13 4 0.000000 18.652000 17.761000 18.795979 # Cc LIG
179 14 4 0.000000 5.643000 40.292999 18.795979 # Cc LIG
180 28 5 0.000000 0.149000 7.143000 18.022980 # Cd LIG
181 28 5 0.000000 13.157000 29.674999 18.022980 # Cd LIG
182 28 5 0.000000 0.149000 22.164000 22.575979 # Cd LIG
183 28 5 0.000000 13.157000 44.695999 22.575979 # Cd LIG
184 28 3 0.000000 1.137000 7.648000 20.167980 # Cb LIG
185 6 3 0.000000 14.146000 30.179001 20.167980 # Cb LIG
186 28 4 0.000000 1.309000 22.292999 23.347980 # Cc LIG
187 28 4 0.000000 14.318000 44.825001 23.347980 # Cc LIG
188 28 4 0.000000 1.309000 7.272000 18.795979 # Cc LIG
189 28 4 0.000000 14.318000 29.804001 18.795979 # Cc LIG
190 18 2 0.000000 10.736000 14.699000 19.861980 # Ca LIG
191 19 2 0.000000 23.745001 37.230000 19.861980 # Ca LIG
192 16 4 0.000000 11.699000 15.259000 22.176979 # Cc LIG
193 17 4 0.000000 24.708000 37.791000 22.176979 # Cc LIG
194 15 4 0.000000 11.699000 0.238000 17.624979 # Cc LIG
195 4 4 0.000000 24.708000 22.770000 17.624979 # Cc LIG
196 24 3 0.000000 11.871000 14.884000 20.804979 # Cb LIG
197 17 3 0.000000 24.879999 37.415001 20.804979 # Cb LIG
198 15 5 0.000000 12.860000 0.367000 18.396980 # Cd LIG
199 4 5 0.000000 25.868999 22.899000 18.396980 # Cd LIG
200 16 5 0.000000 12.860000 15.388000 22.949980 # Cd LIG
201 17 5 0.000000 25.868000 37.919998 22.949980 # Cd LIG
202 24 5 0.000000 13.157000 14.654000 20.299980 # Cd LIG
203 25 5 0.000000 0.149000 37.185001 20.299980 # Cd LIG
204 16 3 0.000000 14.146000 15.158000 22.443979 # Cb LIG
205 25 3 0.000000 1.137000 37.689999 22.443979 # Cb LIG
206 15 3 0.000000 14.146000 0.137000 17.891979 # Cb LIG
207 21 3 0.000000 1.137000 22.669001 17.891979 # Cb LIG
208 24 4 0.000000 14.318000 14.783000 21.071980 # Cc LIG
209 25 4 0.000000 1.309000 37.313999 21.071980 # Cc LIG
210 20 2 0.000000 15.281000 0.322000 18.834980 # Ca LIG
211 21 2 0.000000 2.272000 22.854000 18.834980 # Ca LIG
212 5 2 0.000000 15.281000 15.343000 23.386980 # Ca LIG
213 6 2 0.000000 2.272000 37.875000 23.386980 # Ca LIG
214 22 2 0.000000 18.098000 13.072000 18.833981 # Ca LIG
215 23 2 0.000000 5.089000 35.604000 18.833981 # Ca LIG
216 26 4 0.000000 18.652000 2.740000 21.071980 # Cc LIG
217 27 4 0.000000 5.643000 25.271999 21.071980 # Cc LIG
218 20 2 0.000000 18.656000 1.626000 23.386980 # Ca LIG
219 28 2 0.000000 5.647000 24.158001 23.386980 # Ca LIG
220 28 3 0.000000 18.825001 12.182000 17.891979 # Cb LIG
221 28 3 0.000000 5.816000 34.714001 17.891979 # Cb LIG
222 28 3 0.000000 19.063000 2.701000 22.443979 # Cb LIG
223 28 3 0.000000 6.055000 25.233000 22.443979 # Cb LIG
224 26 5 0.000000 19.120001 3.810000 20.299980 # Cd LIG
225 27 5 0.000000 6.111000 26.341999 20.299980 # Cd LIG
226 28 5 0.000000 19.268999 10.953000 18.396980 # Cd LIG
227 28 5 0.000000 6.260000 33.485001 18.396980 # Cd LIG
228 28 5 0.000000 19.906000 3.700000 22.948978 # Cd LIG
229 28 5 0.000000 6.897000 26.232000 22.948978 # Cd LIG
230 28 2 0.000000 2.272000 7.833000 21.110979 # Ca LIG
231 28 2 0.000000 15.281000 30.364000 21.110979 # Ca LIG
232 26 3 0.000000 19.962000 4.809000 20.804979 # Cb LIG
233 27 3 0.000000 6.954000 27.341000 20.804979 # Cb LIG
234 28 4 0.000000 19.961000 10.013000 17.624979 # Cc LIG
235 28 4 0.000000 6.953000 32.543999 17.624979 # Cc LIG
236 28 2 0.000000 20.370001 5.884000 19.861980 # Ca LIG
237 28 2 0.000000 7.361000 28.416000 19.861980 # Ca LIG
238 28 4 0.000000 20.374001 4.770000 22.176979 # Cc LIG
239 28 4 0.000000 7.366000 27.302000 22.176979 # Cc LIG
240 28 2 0.000000 5.089000 5.562000 23.386980 # Ca LIG
241 28 2 0.000000 18.098000 28.093000 23.386980 # Ca LIG
242 28 2 0.000000 5.089000 20.583000 21.110979 # Ca LIG
243 28 2 0.000000 18.098000 43.115002 21.110979 # Ca LIG
244 28 4 0.000000 5.643000 10.251000 23.347980 # Cc LIG
245 28 4 0.000000 18.652000 32.783001 23.347980 # Cc LIG
246 28 2 0.000000 5.647000 9.137000 18.834980 # Ca LIG
247 28 2 0.000000 18.656000 31.667999 18.834980 # Ca LIG
248 28 3 0.000000 5.816000 4.671000 22.443979 # Cb LIG
249 28 3 0.000000 18.825001 27.202999 22.443979 # Cb LIG
250 28 3 0.000000 5.817000 19.693001 20.167980 # Cb LIG
251 28 3 0.000000 18.825001 42.223999 20.167980 # Cb LIG
252 28 4 0.000000 6.056000 5.008000 21.071980 # Cc LIG
253 28 4 0.000000 19.065001 27.540001 21.071980 # Cc LIG
254 28 4 0.000000 6.056000 20.028999 18.795979 # Cc LIG
255 28 4 0.000000 19.063999 42.561001 18.795979 # Cc LIG
256 28 3 0.000000 6.055000 10.212000 17.891979 # Cb LIG
257 28 3 0.000000 19.063000 32.743000 17.891979 # Cb LIG
258 28 5 0.000000 6.111000 11.321000 22.575979 # Cd LIG
259 28 5 0.000000 19.120001 33.852001 22.575979 # Cd LIG
260 28 5 0.000000 6.260000 3.443000 22.948978 # Cd LIG
261 28 5 0.000000 19.268999 25.974001 22.948978 # Cd LIG
262 28 5 0.000000 6.261000 18.464001 20.672979 # Cd LIG
263 28 5 0.000000 19.268999 40.994999 20.672979 # Cd LIG
264 28 5 0.000000 6.748000 4.068000 20.299980 # Cd LIG
265 28 5 0.000000 19.757000 26.599001 20.299980 # Cd LIG
266 28 5 0.000000 6.748000 19.089001 18.022980 # Cd LIG
267 28 5 0.000000 19.757000 41.619999 18.022980 # Cd LIG
268 28 5 0.000000 6.897000 11.211000 18.396980 # Cd LIG
269 28 5 0.000000 19.906000 33.742001 18.396980 # Cd LIG
270 28 3 0.000000 6.954000 12.320000 23.080978 # Cb LIG
271 28 3 0.000000 19.962000 34.851002 23.080978 # Cb LIG
272 28 4 0.000000 6.953000 2.502000 22.176979 # Cc LIG
273 28 4 0.000000 19.961000 25.034000 22.176979 # Cc LIG
274 28 4 0.000000 6.953000 17.523001 19.900980 # Cc LIG
275 28 4 0.000000 19.961000 40.055000 19.900980 # Cc LIG
276 28 3 0.000000 7.192000 2.839000 20.804979 # Cb LIG
277 28 3 0.000000 20.201000 25.371000 20.804979 # Cb LIG
278 28 3 0.000000 7.192000 17.860001 18.527981 # Cb LIG
279 28 3 0.000000 20.201000 40.390999 18.527981 # Cb LIG
280 28 2 0.000000 7.361000 13.395000 22.137980 # Ca LIG
281 28 2 0.000000 20.370001 35.925999 22.137980 # Ca LIG
282 28 4 0.000000 7.366000 12.281000 17.624979 # Cc LIG
283 28 4 0.000000 20.374001 34.812000 17.624979 # Cc LIG
284 28 2 0.000000 7.919000 1.949000 19.861980 # Ca LIG
285 28 2 0.000000 20.927999 24.480000 19.861980 # Ca LIG
286 28 2 0.000000 7.919000 16.969999 17.585979 # Ca LIG
287 28 2 0.000000 20.927999 39.500999 17.585979 # Ca LIG
288 5 6 0.000000 25.764999 8.173000 21.715981 # H LIG
289 6 6 0.000000 12.756000 30.704000 21.715981 # H LIG
290 7 6 0.000000 20.212999 18.664000 21.715981 # H LIG
291 8 6 0.000000 7.204000 41.195999 21.715981 # H LIG
292 11 6 0.000000 19.961000 11.816000 21.532980 # H LIG
293 12 6 0.000000 6.952000 34.347000 21.532980 # H LIG
294 29 6 0.000000 18.813000 18.889000 23.808979 # H LIG
295 30 6 0.000000 5.805000 41.419998 23.808979 # H LIG
296 31 6 0.000000 0.252000 6.849000 23.808979 # H LIG
297 32 6 0.000000 13.261000 29.379999 23.808979 # H LIG
298 28 6 0.000000 0.252000 21.870001 21.532980 # H LIG
299 28 6 0.000000 13.261000 44.401001 21.532980 # H LIG
300 15 6 0.000000 12.756000 0.662000 19.439980 # H LIG
301 4 6 0.000000 25.764999 23.194000 19.439980 # H LIG
302 33 6 0.000000 12.756000 15.683000 17.163979 # H LIG
303 34 6 0.000000 25.764999 38.215000 17.163979 # H LIG
304 24 6 0.000000 13.261000 14.359000 19.255980 # H LIG
305 25 6 0.000000 0.252000 36.890999 19.255980 # H LIG
306 26 6 0.000000 18.813000 3.868000 19.256979 # H LIG
307 27 6 0.000000 5.804000 26.399000 19.256979 # H LIG
308 28 6 0.000000 19.065001 10.716000 19.439980 # H LIG
309 28 6 0.000000 6.057000 33.248001 19.439980 # H LIG
310 35 6 0.000000 20.212999 3.643000 17.163979 # H LIG
311 36 6 0.000000 7.204000 26.174000 17.163979 # H LIG
312 28 6 0.000000 5.804000 11.378000 21.532980 # H LIG
313 28 6 0.000000 18.813000 33.910000 21.532980 # H LIG
314 37 6 0.000000 6.057000 3.205000 17.163979 # H LIG
315 38 6 0.000000 19.065001 25.737000 17.163979 # H LIG
316 28 6 0.000000 6.057000 18.226999 21.715981 # H LIG
317 28 6 0.000000 19.066000 40.757999 21.715981 # H LIG
318 28 6 0.000000 6.952000 4.305000 19.256979 # H LIG
319 28 6 0.000000 19.959999 26.837000 19.256979 # H LIG
320 39 6 0.000000 6.951000 19.326000 23.808979 # H LIG
321 40 6 0.000000 19.959999 41.856998 23.808979 # H LIG
322 28 6 0.000000 7.204000 11.153000 19.439980 # H LIG
323 28 6 0.000000 20.212999 33.685001 19.439980 # H LIG
324 28 7 0.000000 22.488001 21.886000 19.548981 # Ni LIG
325 2 7 0.000000 9.479000 44.417999 19.548981 # Ni LIG
326 1 7 0.000000 20.719000 22.156000 21.825979 # Ni LIG
327 2 7 0.000000 7.710000 44.687000 21.825979 # Ni LIG
328 41 7 0.000000 8.828000 1.021000 17.272980 # Ni LIG
329 3 7 0.000000 21.837000 23.552999 17.272980 # Ni LIG
330 20 7 0.000000 16.538000 0.645000 21.423981 # Ni LIG
331 28 7 0.000000 3.529000 23.177000 21.423981 # Ni LIG
332 20 7 0.000000 18.306999 0.376000 19.147980 # Ni LIG
333 21 7 0.000000 5.299000 22.908001 19.147980 # Ni LIG
334 28 7 0.000000 4.181000 21.510000 23.699980 # Ni LIG
335 42 7 0.000000 17.188999 44.042000 23.699980 # Ni LIG
336 3 7 0.000000 22.488001 6.865000 21.824980 # Ni LIG
337 4 7 0.000000 9.479000 29.396999 21.824980 # Ni LIG
338 28 7 0.000000 21.837000 8.532000 19.548981 # Ni LIG
339 28 7 0.000000 8.828000 31.063000 19.548981 # Ni LIG
340 1 7 0.000000 20.718000 7.135000 17.272980 # Ni LIG
341 2 7 0.000000 7.710000 29.666000 17.272980 # Ni LIG
342 28 7 0.000000 3.529000 8.156000 23.699980 # Ni LIG
343 28 7 0.000000 16.538000 30.688000 23.699980 # Ni LIG
344 28 7 0.000000 4.180000 6.489000 19.147980 # Ni LIG
345 28 7 0.000000 17.188999 29.021000 19.147980 # Ni LIG
346 28 7 0.000000 5.299000 7.886000 21.423981 # Ni LIG
347 28 7 0.000000 18.306999 30.417999 21.423981 # Ni LIG
348 18 7 0.000000 7.710000 14.645000 19.548981 # Ni LIG
349 19 7 0.000000 20.719000 37.176998 19.548981 # Ni LIG
350 28 7 0.000000 8.828000 16.042000 21.824980 # Ni LIG
351 28 7 0.000000 21.837000 38.574001 21.824980 # Ni LIG
352 28 7 0.000000 9.479000 14.375000 17.272980 # Ni LIG
353 28 7 0.000000 22.488001 36.907001 17.272980 # Ni LIG
354 5 7 0.000000 18.306999 15.397000 23.699980 # Ni LIG
355 6 7 0.000000 5.299000 37.929001 23.699980 # Ni LIG
356 22 7 0.000000 16.538000 15.666000 19.146980 # Ni LIG
357 23 7 0.000000 3.529000 38.198002 19.146980 # Ni LIG
358 9 7 0.000000 17.188999 14.000000 21.423981 # Ni LIG
359 10 7 0.000000 4.180000 36.530998 21.423981 # Ni LIG
360 1 9 0.000000 23.941000 21.823999 0.459500 # Ob LIG
361 2 9 0.000000 10.932000 44.355999 0.459500 # Ob LIG
362 3 9 0.000000 23.941000 6.803000 2.735500 # Ob LIG
363 4 9 0.000000 10.932000 29.334000 2.735500 # Ob LIG
364 5 10 0.000000 23.514999 7.995000 0.005500 # Oc LIG
365 6 10 0.000000 10.506000 30.527000 0.005500 # Oc LIG
366 1 8 0.000000 22.554001 7.442000 24.851978 # Oa LIG
367 2 8 0.000000 9.546000 29.973000 24.851978 # Oa LIG
368 1 8 0.000000 22.554001 22.462999 2.089500 # Oa LIG
369 2 8 0.000000 9.546000 44.993999 2.089500 # Oa LIG
370 3 8 0.000000 21.304001 8.301000 2.089500 # Oa LIG
371 4 8 0.000000 8.295000 30.833000 2.089500 # Oa LIG
372 3 9 0.000000 21.164000 9.821000 0.459500 # Ob LIG
373 4 9 0.000000 8.155000 32.353001 0.459500 # Ob LIG
374 7 10 0.000000 21.184000 20.701000 0.005500 # Oc LIG
375 8 10 0.000000 8.176000 43.233002 0.005500 # Oc LIG
376 3 8 0.000000 21.184999 21.809999 24.851978 # Oa LIG
377 2 8 0.000000 8.176000 44.341000 24.851978 # Oa LIG
378 1 9 0.000000 19.938000 20.927999 2.735500 # Ob LIG
379 2 9 0.000000 6.930000 43.459999 2.735500 # Ob LIG
380 9 9 0.000000 19.087999 16.624001 1.816500 # Ob LIG
381 10 9 0.000000 6.079000 39.155998 1.816500 # Ob LIG
382 11 10 0.000000 18.681999 13.676000 2.270500 # Oc LIG
383 12 10 0.000000 5.673000 36.207001 2.270500 # Oc LIG
384 9 8 0.000000 17.841000 15.743000 0.186500 # Oa LIG
385 10 8 0.000000 4.833000 38.275002 0.186500 # Oa LIG
386 13 10 0.000000 17.841999 16.851000 25.033979 # Oc LIG
387 14 10 0.000000 4.833000 39.382999 25.033979 # Oc LIG
388 15 10 0.000000 10.506000 0.485000 25.043980 # Oc LIG
389 4 10 0.000000 23.514999 23.017000 25.043980 # Oc LIG
390 16 10 0.000000 10.506000 15.506000 2.281500 # Oc LIG
391 17 10 0.000000 23.514999 38.036999 2.281500 # Oc LIG
392 18 9 0.000000 10.932000 14.313000 25.497980 # Ob LIG
393 19 9 0.000000 23.941000 36.845001 25.497980 # Ob LIG
394 20 9 0.000000 15.085000 0.708000 26.855980 # Ob LIG
395 21 9 0.000000 2.076000 23.239000 26.855980 # Ob LIG
396 22 9 0.000000 15.085000 15.729000 24.579979 # Ob LIG
397 23 9 0.000000 2.077000 38.259998 24.579979 # Ob LIG
398 24 10 0.000000 15.511000 14.536000 27.309978 # Oc LIG
399 25 10 0.000000 2.503000 37.068001 27.309978 # Oc LIG
400 5 8 0.000000 16.471001 15.090000 2.462500 # Oa LIG
401 6 8 0.000000 3.463000 37.620998 2.462500 # Oa LIG
402 20 8 0.000000 16.471001 0.069000 25.225979 # Oa LIG
403 21 8 0.000000 3.463000 22.601000 25.225979 # Oa LIG
404 22 8 0.000000 17.722000 14.230000 25.225979 # Oa LIG
405 23 8 0.000000 4.713000 36.762001 25.225979 # Oa LIG
406 22 9 0.000000 17.862000 12.710000 26.855980 # Ob LIG
407 23 9 0.000000 4.853000 35.242001 26.855980 # Ob LIG
408 26 10 0.000000 17.841000 1.831000 27.309978 # Oc LIG
409 27 10 0.000000 4.833000 24.362000 27.309978 # Oc LIG
410 20 8 0.000000 17.841000 0.722000 2.462500 # Oa LIG
411 28 8 0.000000 4.833000 23.254000 2.462500 # Oa LIG
412 20 9 0.000000 19.087000 1.603000 24.579979 # Ob LIG
413 21 9 0.000000 6.079000 24.135000 24.579979 # Ob LIG
414 28 9 0.000000 19.938000 5.907000 25.497980 # Ob LIG
415 28 9 0.000000 6.930000 28.438999 25.497980 # Ob LIG
416 28 9 0.000000 2.076000 8.218000 1.816500 # Ob LIG
417 28 9 0.000000 15.085000 30.750000 1.816500 # Ob LIG
418 28 10 0.000000 2.503000 7.026000 25.033979 # Oc LIG
419 28 10 0.000000 15.511000 29.556999 25.033979 # Oc LIG
420 28 10 0.000000 2.503000 22.047001 2.270500 # Oc LIG
421 28 10 0.000000 15.511000 44.577999 2.270500 # Oc LIG
422 28 10 0.000000 20.344000 8.856000 25.044979 # Oc LIG
423 28 10 0.000000 7.336000 31.388000 25.044979 # Oc LIG
424 28 8 0.000000 21.184999 6.789000 27.128979 # Oa LIG
425 28 8 0.000000 8.176000 29.320000 27.128979 # Oa LIG
426 28 10 0.000000 21.184000 5.680000 2.281500 # Oc LIG
427 28 10 0.000000 8.176000 28.212000 2.281500 # Oc LIG
428 28 8 0.000000 3.463000 7.579000 0.186500 # Oa LIG
429 28 8 0.000000 16.471001 30.111000 0.186500 # Oa LIG
430 28 8 0.000000 4.713000 6.720000 2.462500 # Oa LIG
431 28 8 0.000000 17.722000 29.250999 2.462500 # Oa LIG
432 28 8 0.000000 4.713000 21.740999 0.186500 # Oa LIG
433 28 8 0.000000 17.722000 44.271999 0.186500 # Oa LIG
434 28 9 0.000000 4.853000 5.200000 24.579979 # Ob LIG
435 28 9 0.000000 17.862000 27.731001 24.579979 # Ob LIG
436 28 9 0.000000 4.853000 20.221001 1.816500 # Ob LIG
437 28 9 0.000000 17.862000 42.751999 1.816500 # Ob LIG
438 28 10 0.000000 4.833000 9.341000 2.270500 # Oc LIG
439 28 10 0.000000 17.841000 31.872999 2.270500 # Oc LIG
440 28 8 0.000000 4.833000 8.232000 25.225979 # Oa LIG
441 28 8 0.000000 17.841000 30.764000 25.225979 # Oa LIG
442 28 10 0.000000 5.673000 6.165000 27.309978 # Oc LIG
443 28 10 0.000000 18.681999 28.697001 27.309978 # Oc LIG
444 28 10 0.000000 5.673000 21.186001 25.033979 # Oc LIG
445 28 10 0.000000 18.681000 43.717999 25.033979 # Oc LIG
446 28 9 0.000000 6.079000 9.114000 26.855980 # Ob LIG
447 28 9 0.000000 19.087000 31.645000 26.855980 # Ob LIG
448 28 9 0.000000 6.930000 13.418000 0.459500 # Ob LIG
449 28 9 0.000000 19.938000 35.949001 0.459500 # Ob LIG
450 28 10 0.000000 7.336000 1.345000 2.281500 # Oc LIG
451 28 10 0.000000 20.344000 23.877001 2.281500 # Oc LIG
452 28 10 0.000000 7.336000 16.365999 0.005500 # Oc LIG
453 28 10 0.000000 20.344000 38.897999 0.005500 # Oc LIG
454 28 8 0.000000 8.176000 14.299000 2.089500 # Oa LIG
455 28 8 0.000000 21.184999 36.831001 2.089500 # Oa LIG
456 28 10 0.000000 8.176000 13.190000 25.043980 # Oc LIG
457 28 10 0.000000 21.184000 35.722000 25.043980 # Oc LIG
458 28 9 0.000000 8.155000 2.311000 25.497980 # Ob LIG
459 28 9 0.000000 21.164000 24.841999 25.497980 # Ob LIG
460 28 9 0.000000 8.155000 17.332001 2.735500 # Ob LIG
461 28 9 0.000000 21.164000 39.862999 2.735500 # Ob LIG
462 28 8 0.000000 8.296000 0.791000 27.128979 # Oa LIG
463 28 8 0.000000 21.304001 23.322001 27.128979 # Oa LIG
464 28 8 0.000000 8.295000 15.812000 24.851978 # Oa LIG
465 28 8 0.000000 21.304001 38.342999 24.851978 # Oa LIG
466 18 8 0.000000 9.546000 14.952000 27.128979 # Oa LIG
467 19 8 0.000000 22.554001 37.484001 27.128979 # Oa LIG
468 5 5 0.000000 25.868000 7.878000 0.186500 # Cd LIG
469 6 5 0.000000 12.860000 30.409000 0.186500 # Cd LIG
470 5 3 0.000000 24.879999 7.373000 25.356979 # Cb LIG
471 28 3 0.000000 11.871000 29.905001 25.356979 # Cb LIG
472 1 3 0.000000 24.879999 22.393999 2.594500 # Cb LIG
473 28 3 0.000000 11.871000 44.925999 2.594500 # Cb LIG
474 5 4 0.000000 24.708000 7.749000 26.729979 # Cc LIG
475 6 4 0.000000 11.699000 30.280001 26.729979 # Cc LIG
476 1 2 0.000000 23.745001 22.209999 1.651500 # Ca LIG
477 2 2 0.000000 10.736000 44.741001 1.651500 # Ca LIG
478 1 2 0.000000 23.745001 7.188000 24.414980 # Ca LIG
479 2 2 0.000000 10.736000 29.719999 24.414980 # Ca LIG
480 3 2 0.000000 20.927999 9.459000 1.651500 # Ca LIG
481 4 2 0.000000 7.919000 31.990999 1.651500 # Ca LIG
482 7 4 0.000000 20.374001 19.791000 26.729979 # Cc LIG
483 8 4 0.000000 7.365000 42.323002 26.729979 # Cc LIG
484 3 2 0.000000 20.370001 20.905001 24.414980 # Ca LIG
485 2 2 0.000000 7.361000 43.437000 24.414980 # Ca LIG
486 11 3 0.000000 20.201000 10.350000 2.594500 # Cb LIG
487 12 3 0.000000 7.192000 32.881001 2.594500 # Cb LIG
488 13 3 0.000000 19.962999 19.830000 25.356979 # Cb LIG
489 14 3 0.000000 6.954000 42.362000 25.356979 # Cb LIG
490 7 5 0.000000 19.905001 18.722000 0.186500 # Cd LIG
491 8 5 0.000000 6.897000 41.252998 0.186500 # Cd LIG
492 11 5 0.000000 19.757000 11.578000 2.089500 # Cd LIG
493 12 5 0.000000 6.749000 34.110001 2.089500 # Cd LIG
494 13 5 0.000000 19.120001 18.830999 24.851978 # Cd LIG
495 14 5 0.000000 6.112000 41.362999 24.851978 # Cd LIG
496 7 3 0.000000 19.063000 17.723000 26.996979 # Cb LIG
497 8 3 0.000000 6.055000 40.254002 26.996979 # Cb LIG
498 11 4 0.000000 19.065001 12.519000 2.861500 # Cc LIG
499 12 4 0.000000 6.056000 35.050999 2.861500 # Cc LIG
500 9 2 0.000000 18.656000 16.646999 0.624500 # Ca LIG
501 10 2 0.000000 5.647000 39.179001 0.624500 # Ca LIG
502 13 4 0.000000 18.652000 17.761000 25.624979 # Cc LIG
503 14 4 0.000000 5.643000 40.292999 25.624979 # Cc LIG
504 28 5 0.000000 0.149000 7.143000 24.851978 # Cd LIG
505 28 5 0.000000 13.157000 29.674999 24.851978 # Cd LIG
506 28 5 0.000000 0.149000 22.164000 2.089500 # Cd LIG
507 28 5 0.000000 13.157000 44.695999 2.089500 # Cd LIG
508 28 3 0.000000 1.137000 7.648000 26.996979 # Cb LIG
509 6 3 0.000000 14.146000 30.179001 26.996979 # Cb LIG
510 28 4 0.000000 1.309000 22.292999 2.861500 # Cc LIG
511 28 4 0.000000 14.318000 44.825001 2.861500 # Cc LIG
512 28 4 0.000000 1.309000 7.272000 25.624979 # Cc LIG
513 28 4 0.000000 14.318000 29.804001 25.624979 # Cc LIG
514 18 2 0.000000 10.736000 14.699000 26.690979 # Ca LIG
515 19 2 0.000000 23.745001 37.230000 26.690979 # Ca LIG
516 16 4 0.000000 11.699000 15.259000 1.690500 # Cc LIG
517 17 4 0.000000 24.708000 37.791000 1.690500 # Cc LIG
518 15 4 0.000000 11.699000 0.238000 24.453979 # Cc LIG
519 4 4 0.000000 24.708000 22.770000 24.453979 # Cc LIG
520 24 3 0.000000 11.871000 14.884000 0.318500 # Cb LIG
521 17 3 0.000000 24.879999 37.415001 0.318500 # Cb LIG
522 15 5 0.000000 12.860000 0.367000 25.225979 # Cd LIG
523 4 5 0.000000 25.868999 22.899000 25.225979 # Cd LIG
524 16 5 0.000000 12.860000 15.388000 2.463500 # Cd LIG
525 17 5 0.000000 25.868000 37.919998 2.463500 # Cd LIG
526 24 5 0.000000 13.157000 14.654000 27.128979 # Cd LIG
527 25 5 0.000000 0.149000 37.185001 27.128979 # Cd LIG