LAMMPS data file. CGCMM style. atom_style full generated by VMD/TopoTools v1.5 on Tue Jun 13 18:10:24 PDT 2017
 1764 atoms
 280 bonds
 0 angles
 0 dihedrals
 0 impropers
 11 atom types
 1 bond types
 0 angle types
 0 dihedral types
 0 improper types
 1.889931 45.665932  xlo xhi
 -2.142075 41.617923  ylo yhi
 -0.021506 27.658494  zlo zhi

# Pair Coeffs
#
# 1  Ca
# 2  Cb
# 3  Cc
# 4  Cd
# 5  Cg
# 6  H
# 7  Mg
# 8  Oa
# 9  Ob
# 10  Oc
# 11  Og

 Masses

 1 12.011000 # Ca
 2 12.011000 # Cb
 3 12.011000 # Cc
 4 12.011000 # Cd
 5 12.011000 # Cg
 6 1.008000 # H
 7 24.305000 # Mg
 8 15.999000 # Oa
 9 15.999000 # Ob
 10 15.999000 # Oc
 11 15.999000 # Og

 Atoms

1 1 11 -0.325600 19.155220 29.124346 17.697989 # Og 
2 1 5 0.651200 19.155220 29.124346 16.537989 # Cg 
3 1 11 -0.325600 19.155220 29.124346 15.377989 # Og 
4 2 11 -0.325600 19.156219 29.125345 20.772989 # Og 
5 2 5 0.651200 19.156219 29.125345 19.612988 # Cg 
6 2 11 -0.325600 19.156219 29.125345 18.452988 # Og 
7 3 11 -0.325600 19.156219 29.126345 23.848989 # Og 
8 3 5 0.651200 19.156219 29.126345 22.688988 # Cg 
9 3 11 -0.325600 19.156219 29.126345 21.528988 # Og 
10 4 11 -0.325600 19.157219 29.127344 26.923988 # Og 
11 4 5 0.651200 19.157219 29.127344 25.763988 # Cg 
12 4 11 -0.325600 19.157219 29.127344 24.603989 # Og 
13 5 11 -0.325600 19.152388 29.153452 2.320000 # Og 
14 5 5 0.651200 19.152388 29.153452 1.160000 # Cg 
15 5 11 -0.325600 19.152388 29.153452 0.000000 # Og 
16 6 11 -0.325600 19.153387 29.154451 5.396000 # Og 
17 6 5 0.651200 19.153387 29.154451 4.236000 # Cg 
18 6 11 -0.325600 19.153387 29.154451 3.076000 # Og 
19 7 11 -0.325600 19.154388 29.155451 8.471000 # Og 
20 7 5 0.651200 19.154388 29.155451 7.311000 # Cg 
21 7 11 -0.325600 19.154388 29.155451 6.151000 # Og 
22 8 11 -0.325600 19.154388 29.156450 11.547000 # Og 
23 8 5 0.651200 19.154388 29.156450 10.387000 # Cg 
24 8 11 -0.325600 19.154388 29.156450 9.227000 # Og 
25 9 11 -0.325600 19.155388 29.157450 14.622000 # Og 
26 9 5 0.651200 19.155388 29.157450 13.462000 # Cg 
27 9 11 -0.325600 19.155388 29.157450 12.302000 # Og 
28 10 11 -0.325600 13.684219 38.598347 17.697989 # Og 
29 10 5 0.651200 13.684219 38.598347 16.537989 # Cg 
30 10 11 -0.325600 13.684219 38.598347 15.377989 # Og 
31 11 11 -0.325600 13.684219 38.599346 20.772989 # Og 
32 11 5 0.651200 13.684219 38.599346 19.612988 # Cg 
33 11 11 -0.325600 13.684219 38.599346 18.452988 # Og 
34 12 11 -0.325600 13.685219 38.599346 23.848989 # Og 
35 12 5 0.651200 13.685219 38.599346 22.688988 # Cg 
36 12 11 -0.325600 13.685219 38.599346 21.528988 # Og 
37 13 11 -0.325600 13.685219 38.600349 26.923988 # Og 
38 13 5 0.651200 13.685219 38.600349 25.763988 # Cg 
39 13 11 -0.325600 13.685219 38.600349 24.603989 # Og 
40 14 11 -0.325600 13.681389 38.626453 2.320000 # Og 
41 14 5 0.651200 13.681389 38.626453 1.160000 # Cg 
42 14 11 -0.325600 13.681389 38.626453 0.000000 # Og 
43 15 11 -0.325600 13.681389 38.627453 5.396000 # Og 
44 15 5 0.651200 13.681389 38.627453 4.236000 # Cg 
45 15 11 -0.325600 13.681389 38.627453 3.076000 # Og 
46 16 11 -0.325600 13.682388 38.628452 8.471000 # Og 
47 16 5 0.651200 13.682388 38.628452 7.311000 # Cg 
48 16 11 -0.325600 13.682388 38.628452 6.151000 # Og 
49 17 11 -0.325600 13.682388 38.629452 11.547000 # Og 
50 17 5 0.651200 13.682388 38.629452 10.387000 # Cg 
51 17 11 -0.325600 13.682388 38.629452 9.227000 # Og 
52 18 11 -0.325600 13.683388 38.630455 14.622000 # Og 
53 18 5 0.651200 13.683388 38.630455 13.462000 # Cg 
54 18 11 -0.325600 13.683388 38.630455 12.302000 # Og 
55 19 11 -0.325600 30.098833 10.177895 17.697989 # Og 
56 19 5 0.651200 30.098833 10.177895 16.537989 # Cg 
57 19 11 -0.325600 30.098833 10.177895 15.377989 # Og 
58 20 11 -0.325600 30.099833 10.178894 20.772989 # Og 
59 20 5 0.651200 30.099833 10.178894 19.612988 # Cg 
60 20 11 -0.325600 30.099833 10.178894 18.452988 # Og 
61 21 11 -0.325600 30.099833 10.179894 23.848989 # Og 
62 21 5 0.651200 30.099833 10.179894 22.688988 # Cg 
63 21 11 -0.325600 30.099833 10.179894 21.528988 # Og 
64 22 11 -0.325600 30.100832 10.180895 26.923988 # Og 
65 22 5 0.651200 30.100832 10.180895 25.763988 # Cg 
66 22 11 -0.325600 30.100832 10.180895 24.603989 # Og 
67 23 11 -0.325600 30.096001 10.207000 2.320000 # Og 
68 23 5 0.651200 30.096001 10.207000 1.160000 # Cg 
69 23 11 -0.325600 30.096001 10.207000 0.000000 # Og 
70 24 11 -0.325600 30.097002 10.208000 5.396000 # Og 
71 24 5 0.651200 30.097002 10.208000 4.236000 # Cg 
72 24 11 -0.325600 30.097002 10.208000 3.076000 # Og 
73 25 11 -0.325600 30.097002 10.209000 8.471000 # Og 
74 25 5 0.651200 30.097002 10.209000 7.311000 # Cg 
75 25 11 -0.325600 30.097002 10.209000 6.151000 # Og 
76 26 11 -0.325600 30.098001 10.209000 11.547000 # Og 
77 26 5 0.651200 30.098001 10.209000 10.387000 # Cg 
78 26 11 -0.325600 30.098001 10.209000 9.227000 # Og 
79 27 11 -0.325600 30.098001 10.209999 14.622000 # Og 
80 27 5 0.651200 30.098001 10.209999 13.462000 # Cg 
81 27 11 -0.325600 30.098001 10.209999 12.302000 # Og 
82 28 11 -0.325600 24.626833 19.650894 17.697989 # Og 
83 28 5 0.651200 24.626833 19.650894 16.537989 # Cg 
84 28 11 -0.325600 24.626833 19.650894 15.377989 # Og 
85 29 11 -0.325600 24.627832 19.651894 20.772989 # Og 
86 29 5 0.651200 24.627832 19.651894 19.612988 # Cg 
87 29 11 -0.325600 24.627832 19.651894 18.452988 # Og 
88 30 11 -0.325600 24.627832 19.652895 23.848989 # Og 
89 30 5 0.651200 24.627832 19.652895 22.688988 # Cg 
90 30 11 -0.325600 24.627832 19.652895 21.528988 # Og 
91 31 11 -0.325600 24.628832 19.653894 26.923988 # Og 
92 31 5 0.651200 24.628832 19.653894 25.763988 # Cg 
93 31 11 -0.325600 24.628832 19.653894 24.603989 # Og 
94 32 11 -0.325600 24.625002 19.680000 2.320000 # Og 
95 32 5 0.651200 24.625002 19.680000 1.160000 # Cg 
96 32 11 -0.325600 24.625002 19.680000 0.000000 # Og 
97 33 11 -0.325600 24.625002 19.681000 5.396000 # Og 
98 33 5 0.651200 24.625002 19.681000 4.236000 # Cg 
99 33 11 -0.325600 24.625002 19.681000 3.076000 # Og 
100 34 11 -0.325600 24.626001 19.681999 8.471000 # Og 
101 34 5 0.651200 24.626001 19.681999 7.311000 # Cg 
102 34 11 -0.325600 24.626001 19.681999 6.151000 # Og 
103 35 11 -0.325600 24.626001 19.683001 11.547000 # Og 
104 35 5 0.651200 24.626001 19.683001 10.387000 # Cg 
105 35 11 -0.325600 24.626001 19.683001 9.227000 # Og 
106 36 11 -0.325600 24.627001 19.684000 14.622000 # Og 
107 36 5 0.651200 24.627001 19.684000 13.462000 # Cg 
108 36 11 -0.325600 24.627001 19.684000 12.302000 # Og 
109 37 11 -0.325600 30.099220 29.124346 17.697989 # Og 
110 37 5 0.651200 30.099220 29.124346 16.537989 # Cg 
111 37 11 -0.325600 30.099220 29.124346 15.377989 # Og 
112 38 11 -0.325600 30.100220 29.125345 20.772989 # Og 
113 38 5 0.651200 30.100220 29.125345 19.612988 # Cg 
114 38 11 -0.325600 30.100220 29.125345 18.452988 # Og 
115 39 11 -0.325600 30.100220 29.126345 23.848989 # Og 
116 39 5 0.651200 30.100220 29.126345 22.688988 # Cg 
117 39 11 -0.325600 30.100220 29.126345 21.528988 # Og 
118 40 11 -0.325600 30.101219 29.127344 26.923988 # Og 
119 40 5 0.651200 30.101219 29.127344 25.763988 # Cg 
120 40 11 -0.325600 30.101219 29.127344 24.603989 # Og 
121 41 11 -0.325600 30.096388 29.153452 2.320000 # Og 
122 41 5 0.651200 30.096388 29.153452 1.160000 # Cg 
123 41 11 -0.325600 30.096388 29.153452 0.000000 # Og 
124 42 11 -0.325600 30.097387 29.154451 5.396000 # Og 
125 42 5 0.651200 30.097387 29.154451 4.236000 # Cg 
126 42 11 -0.325600 30.097387 29.154451 3.076000 # Og 
127 43 11 -0.325600 30.098387 29.155451 8.471000 # Og 
128 43 5 0.651200 30.098387 29.155451 7.311000 # Cg 
129 43 11 -0.325600 30.098387 29.155451 6.151000 # Og 
130 44 11 -0.325600 30.098387 29.156450 11.547000 # Og 
131 44 5 0.651200 30.098387 29.156450 10.387000 # Cg 
132 44 11 -0.325600 30.098387 29.156450 9.227000 # Og 
133 45 11 -0.325600 30.099388 29.157450 14.622000 # Og 
134 45 5 0.651200 30.099388 29.157450 13.462000 # Cg 
135 45 11 -0.325600 30.099388 29.157450 12.302000 # Og 
136 46 11 -0.325600 24.628220 38.598347 17.697989 # Og 
137 46 5 0.651200 24.628220 38.598347 16.537989 # Cg 
138 46 11 -0.325600 24.628220 38.598347 15.377989 # Og 
139 47 11 -0.325600 24.628220 38.599346 20.772989 # Og 
140 47 5 0.651200 24.628220 38.599346 19.612988 # Cg 
141 47 11 -0.325600 24.628220 38.599346 18.452988 # Og 
142 48 11 -0.325600 24.629219 38.599346 23.848989 # Og 
143 48 5 0.651200 24.629219 38.599346 22.688988 # Cg 
144 48 11 -0.325600 24.629219 38.599346 21.528988 # Og 
145 49 11 -0.325600 24.629219 38.600349 26.923988 # Og 
146 49 5 0.651200 24.629219 38.600349 25.763988 # Cg 
147 49 11 -0.325600 24.629219 38.600349 24.603989 # Og 
148 50 11 -0.325600 24.625387 38.626453 2.320000 # Og 
149 50 5 0.651200 24.625387 38.626453 1.160000 # Cg 
150 50 11 -0.325600 24.625387 38.626453 0.000000 # Og 
151 51 11 -0.325600 24.625387 38.627453 5.396000 # Og 
152 51 5 0.651200 24.625387 38.627453 4.236000 # Cg 
153 51 11 -0.325600 24.625387 38.627453 3.076000 # Og 
154 52 11 -0.325600 24.626387 38.628452 8.471000 # Og 
155 52 5 0.651200 24.626387 38.628452 7.311000 # Cg 
156 52 11 -0.325600 24.626387 38.628452 6.151000 # Og 
157 53 11 -0.325600 24.626387 38.629452 11.547000 # Og 
158 53 5 0.651200 24.626387 38.629452 10.387000 # Cg 
159 53 11 -0.325600 24.626387 38.629452 9.227000 # Og 
160 54 11 -0.325600 24.627388 38.630455 14.622000 # Og 
161 54 5 0.651200 24.627388 38.630455 13.462000 # Cg 
162 54 11 -0.325600 24.627388 38.630455 12.302000 # Og 
163 55 11 -0.325600 41.042831 10.177895 17.697989 # Og 
164 55 5 0.651200 41.042831 10.177895 16.537989 # Cg 
165 55 11 -0.325600 41.042831 10.177895 15.377989 # Og 
166 56 11 -0.325600 41.043835 10.178894 20.772989 # Og 
167 56 5 0.651200 41.043835 10.178894 19.612988 # Cg 
168 56 11 -0.325600 41.043835 10.178894 18.452988 # Og 
169 57 11 -0.325600 41.043835 10.179894 23.848989 # Og 
170 57 5 0.651200 41.043835 10.179894 22.688988 # Cg 
171 57 11 -0.325600 41.043835 10.179894 21.528988 # Og 
172 58 11 -0.325600 41.044834 10.180895 26.923988 # Og 
173 58 5 0.651200 41.044834 10.180895 25.763988 # Cg 
174 58 11 -0.325600 41.044834 10.180895 24.603989 # Og 
175 59 11 -0.325600 41.040001 10.207000 2.320000 # Og 
176 59 5 0.651200 41.040001 10.207000 1.160000 # Cg 
177 59 11 -0.325600 41.040001 10.207000 0.000000 # Og 
178 60 11 -0.325600 41.041000 10.208000 5.396000 # Og 
179 60 5 0.651200 41.041000 10.208000 4.236000 # Cg 
180 60 11 -0.325600 41.041000 10.208000 3.076000 # Og 
181 61 11 -0.325600 41.041000 10.209000 8.471000 # Og 
182 61 5 0.651200 41.041000 10.209000 7.311000 # Cg 
183 61 11 -0.325600 41.041000 10.209000 6.151000 # Og 
184 62 11 -0.325600 41.042000 10.209000 11.547000 # Og 
185 62 5 0.651200 41.042000 10.209000 10.387000 # Cg 
186 62 11 -0.325600 41.042000 10.209000 9.227000 # Og 
187 63 11 -0.325600 41.042000 10.209999 14.622000 # Og 
188 63 5 0.651200 41.042000 10.209999 13.462000 # Cg 
189 63 11 -0.325600 41.042000 10.209999 12.302000 # Og 
190 64 11 -0.325600 35.570831 19.650894 17.697989 # Og 
191 64 5 0.651200 35.570831 19.650894 16.537989 # Cg 
192 64 11 -0.325600 35.570831 19.650894 15.377989 # Og 
193 65 11 -0.325600 35.571835 19.651894 20.772989 # Og 
194 65 5 0.651200 35.571835 19.651894 19.612988 # Cg 
195 65 11 -0.325600 35.571835 19.651894 18.452988 # Og 
196 66 11 -0.325600 35.571835 19.652895 23.848989 # Og 
197 66 5 0.651200 35.571835 19.652895 22.688988 # Cg 
198 66 11 -0.325600 35.571835 19.652895 21.528988 # Og 
199 67 11 -0.325600 35.572834 19.653894 26.923988 # Og 
200 67 5 0.651200 35.572834 19.653894 25.763988 # Cg 
201 67 11 -0.325600 35.572834 19.653894 24.603989 # Og 
202 68 11 -0.325600 35.569000 19.680000 2.320000 # Og 
203 68 5 0.651200 35.569000 19.680000 1.160000 # Cg 
204 68 11 -0.325600 35.569000 19.680000 0.000000 # Og 
205 69 11 -0.325600 35.569000 19.681000 5.396000 # Og 
206 69 5 0.651200 35.569000 19.681000 4.236000 # Cg 
207 69 11 -0.325600 35.569000 19.681000 3.076000 # Og 
208 70 11 -0.325600 35.570000 19.681999 8.471000 # Og 
209 70 5 0.651200 35.570000 19.681999 7.311000 # Cg 
210 70 11 -0.325600 35.570000 19.681999 6.151000 # Og 
211 71 11 -0.325600 35.570000 19.683001 11.547000 # Og 
212 71 5 0.651200 35.570000 19.683001 10.387000 # Cg 
213 71 11 -0.325600 35.570000 19.683001 9.227000 # Og 
214 72 11 -0.325600 35.570999 19.684000 14.622000 # Og 
215 72 5 0.651200 35.570999 19.684000 13.462000 # Cg 
216 72 11 -0.325600 35.570999 19.684000 12.302000 # Og 
217 73 11 -0.325600 41.043221 29.124346 17.697989 # Og 
218 73 5 0.651200 41.043221 29.124346 16.537989 # Cg 
219 73 11 -0.325600 41.043221 29.124346 15.377989 # Og 
220 74 11 -0.325600 41.044220 29.125345 20.772989 # Og 
221 74 5 0.651200 41.044220 29.125345 19.612988 # Cg 
222 74 11 -0.325600 41.044220 29.125345 18.452988 # Og 
223 75 11 -0.325600 41.044220 29.126345 23.848989 # Og 
224 75 5 0.651200 41.044220 29.126345 22.688988 # Cg 
225 75 11 -0.325600 41.044220 29.126345 21.528988 # Og 
226 76 11 -0.325600 41.045219 29.127344 26.923988 # Og 
227 76 5 0.651200 41.045219 29.127344 25.763988 # Cg 
228 76 11 -0.325600 41.045219 29.127344 24.603989 # Og 
229 77 11 -0.325600 41.040386 29.153452 2.320000 # Og 
230 77 5 0.651200 41.040386 29.153452 1.160000 # Cg 
231 77 11 -0.325600 41.040386 29.153452 0.000000 # Og 
232 78 11 -0.325600 41.041389 29.154451 5.396000 # Og 
233 78 5 0.651200 41.041389 29.154451 4.236000 # Cg 
234 78 11 -0.325600 41.041389 29.154451 3.076000 # Og 
235 79 11 -0.325600 41.042389 29.155451 8.471000 # Og 
236 79 5 0.651200 41.042389 29.155451 7.311000 # Cg 
237 79 11 -0.325600 41.042389 29.155451 6.151000 # Og 
238 80 11 -0.325600 41.042389 29.156450 11.547000 # Og 
239 80 5 0.651200 41.042389 29.156450 10.387000 # Cg 
240 80 11 -0.325600 41.042389 29.156450 9.227000 # Og 
241 81 11 -0.325600 41.043388 29.157450 14.622000 # Og 
242 81 5 0.651200 41.043388 29.157450 13.462000 # Cg 
243 81 11 -0.325600 41.043388 29.157450 12.302000 # Og 
244 82 11 -0.325600 35.572220 38.598347 17.697989 # Og 
245 82 5 0.651200 35.572220 38.598347 16.537989 # Cg 
246 82 11 -0.325600 35.572220 38.598347 15.377989 # Og 
247 83 11 -0.325600 35.572220 38.599346 20.772989 # Og 
248 83 5 0.651200 35.572220 38.599346 19.612988 # Cg 
249 83 11 -0.325600 35.572220 38.599346 18.452988 # Og 
250 84 11 -0.325600 35.573219 38.599346 23.848989 # Og 
251 84 5 0.651200 35.573219 38.599346 22.688988 # Cg 
252 84 11 -0.325600 35.573219 38.599346 21.528988 # Og 
253 85 11 -0.325600 35.573219 38.600349 26.923988 # Og 
254 85 5 0.651200 35.573219 38.600349 25.763988 # Cg 
255 85 11 -0.325600 35.573219 38.600349 24.603989 # Og 
256 86 11 -0.325600 35.569389 38.626453 2.320000 # Og 
257 86 5 0.651200 35.569389 38.626453 1.160000 # Cg 
258 86 11 -0.325600 35.569389 38.626453 0.000000 # Og 
259 87 11 -0.325600 35.569389 38.627453 5.396000 # Og 
260 87 5 0.651200 35.569389 38.627453 4.236000 # Cg 
261 87 11 -0.325600 35.569389 38.627453 3.076000 # Og 
262 88 11 -0.325600 35.570389 38.628452 8.471000 # Og 
263 88 5 0.651200 35.570389 38.628452 7.311000 # Cg 
264 88 11 -0.325600 35.570389 38.628452 6.151000 # Og 
265 89 11 -0.325600 35.570389 38.629452 11.547000 # Og 
266 89 5 0.651200 35.570389 38.629452 10.387000 # Cg 
267 89 11 -0.325600 35.570389 38.629452 9.227000 # Og 
268 90 11 -0.325600 35.571388 38.630455 14.622000 # Og 
269 90 5 0.651200 35.571388 38.630455 13.462000 # Cg 
270 90 11 -0.325600 35.571388 38.630455 12.302000 # Og 
271 91 11 -0.325600 8.210833 10.177895 17.697989 # Og 
272 91 5 0.651200 8.210833 10.177895 16.537989 # Cg 
273 91 11 -0.325600 8.210833 10.177895 15.377989 # Og 
274 92 11 -0.325600 8.211832 10.178894 20.772989 # Og 
275 92 5 0.651200 8.211832 10.178894 19.612988 # Cg 
276 92 11 -0.325600 8.211832 10.178894 18.452988 # Og 
277 93 11 -0.325600 8.211832 10.179894 23.848989 # Og 
278 93 5 0.651200 8.211832 10.179894 22.688988 # Cg 
279 93 11 -0.325600 8.211832 10.179894 21.528988 # Og 
280 94 11 -0.325600 8.212832 10.180895 26.923988 # Og 
281 94 5 0.651200 8.212832 10.180895 25.763988 # Cg 
282 94 11 -0.325600 8.212832 10.180895 24.603989 # Og 
283 95 11 -0.325600 8.208000 10.207000 2.320000 # Og 
284 95 5 0.651200 8.208000 10.207000 1.160000 # Cg 
285 95 11 -0.325600 8.208000 10.207000 0.000000 # Og 
286 96 11 -0.325600 8.209000 10.208000 5.396000 # Og 
287 96 5 0.651200 8.209000 10.208000 4.236000 # Cg 
288 96 11 -0.325600 8.209000 10.208000 3.076000 # Og 
289 97 11 -0.325600 8.209000 10.209000 8.471000 # Og 
290 97 5 0.651200 8.209000 10.209000 7.311000 # Cg 
291 97 11 -0.325600 8.209000 10.209000 6.151000 # Og 
292 98 11 -0.325600 8.210000 10.209000 11.547000 # Og 
293 98 5 0.651200 8.210000 10.209000 10.387000 # Cg 
294 98 11 -0.325600 8.210000 10.209000 9.227000 # Og 
295 99 11 -0.325600 8.210000 10.209999 14.622000 # Og 
296 99 5 0.651200 8.210000 10.209999 13.462000 # Cg 
297 99 11 -0.325600 8.210000 10.209999 12.302000 # Og 
298 100 11 -0.325600 46.514832 19.650894 17.697989 # Og 
299 100 5 0.651200 46.514832 19.650894 16.537989 # Cg 
300 100 11 -0.325600 46.514832 19.650894 15.377989 # Og 
301 101 11 -0.325600 46.515835 19.651894 20.772989 # Og 
302 101 5 0.651200 46.515835 19.651894 19.612988 # Cg 
303 101 11 -0.325600 46.515835 19.651894 18.452988 # Og 
304 102 11 -0.325600 46.515835 19.652895 23.848989 # Og 
305 102 5 0.651200 46.515835 19.652895 22.688988 # Cg 
306 102 11 -0.325600 46.515835 19.652895 21.528988 # Og 
307 103 11 -0.325600 46.516834 19.653894 26.923988 # Og 
308 103 5 0.651200 46.516834 19.653894 25.763988 # Cg 
309 103 11 -0.325600 46.516834 19.653894 24.603989 # Og 
310 104 11 -0.325600 46.513000 19.680000 2.320000 # Og 
311 104 5 0.651200 46.513000 19.680000 1.160000 # Cg 
312 104 11 -0.325600 46.513000 19.680000 0.000000 # Og 
313 105 11 -0.325600 46.513000 19.681000 5.396000 # Og 
314 105 5 0.651200 46.513000 19.681000 4.236000 # Cg 
315 105 11 -0.325600 46.513000 19.681000 3.076000 # Og 
316 106 11 -0.325600 46.514000 19.681999 8.471000 # Og 
317 106 5 0.651200 46.514000 19.681999 7.311000 # Cg 
318 106 11 -0.325600 46.514000 19.681999 6.151000 # Og 
319 107 11 -0.325600 46.514000 19.683001 11.547000 # Og 
320 107 5 0.651200 46.514000 19.683001 10.387000 # Cg 
321 107 11 -0.325600 46.514000 19.683001 9.227000 # Og 
322 108 11 -0.325600 46.514999 19.684000 14.622000 # Og 
323 108 5 0.651200 46.514999 19.684000 13.462000 # Cg 
324 108 11 -0.325600 46.514999 19.684000 12.302000 # Og 
325 109 11 -0.325600 8.211218 29.124346 17.697989 # Og 
326 109 5 0.651200 8.211218 29.124346 16.537989 # Cg 
327 109 11 -0.325600 8.211218 29.124346 15.377989 # Og 
328 110 11 -0.325600 8.212217 29.125345 20.772989 # Og 
329 110 5 0.651200 8.212217 29.125345 19.612988 # Cg 
330 110 11 -0.325600 8.212217 29.125345 18.452988 # Og 
331 111 11 -0.325600 8.212217 29.126345 23.848989 # Og 
332 111 5 0.651200 8.212217 29.126345 22.688988 # Cg 
333 111 11 -0.325600 8.212217 29.126345 21.528988 # Og 
334 112 11 -0.325600 8.213217 29.127344 26.923988 # Og 
335 112 5 0.651200 8.213217 29.127344 25.763988 # Cg 
336 112 11 -0.325600 8.213217 29.127344 24.603989 # Og 
337 113 11 -0.325600 8.208385 29.153452 2.320000 # Og 
338 113 5 0.651200 8.208385 29.153452 1.160000 # Cg 
339 113 11 -0.325600 8.208385 29.153452 0.000000 # Og 
340 114 11 -0.325600 8.209387 29.154451 5.396000 # Og 
341 114 5 0.651200 8.209387 29.154451 4.236000 # Cg 
342 114 11 -0.325600 8.209387 29.154451 3.076000 # Og 
343 115 11 -0.325600 8.210386 29.155451 8.471000 # Og 
344 115 5 0.651200 8.210386 29.155451 7.311000 # Cg 
345 115 11 -0.325600 8.210386 29.155451 6.151000 # Og 
346 116 11 -0.325600 8.210386 29.156450 11.547000 # Og 
347 116 5 0.651200 8.210386 29.156450 10.387000 # Cg 
348 116 11 -0.325600 8.210386 29.156450 9.227000 # Og 
349 117 11 -0.325600 8.211386 29.157450 14.622000 # Og 
350 117 5 0.651200 8.211386 29.157450 13.462000 # Cg 
351 117 11 -0.325600 8.211386 29.157450 12.302000 # Og 
352 118 11 -0.325600 46.516220 38.598347 17.697989 # Og 
353 118 5 0.651200 46.516220 38.598347 16.537989 # Cg 
354 118 11 -0.325600 46.516220 38.598347 15.377989 # Og 
355 119 11 -0.325600 46.516220 38.599346 20.772989 # Og 
356 119 5 0.651200 46.516220 38.599346 19.612988 # Cg 
357 119 11 -0.325600 46.516220 38.599346 18.452988 # Og 
358 120 11 -0.325600 46.517220 38.599346 23.848989 # Og 
359 120 5 0.651200 46.517220 38.599346 22.688988 # Cg 
360 120 11 -0.325600 46.517220 38.599346 21.528988 # Og 
361 121 11 -0.325600 46.517220 38.600349 26.923988 # Og 
362 121 5 0.651200 46.517220 38.600349 25.763988 # Cg 
363 121 11 -0.325600 46.517220 38.600349 24.603989 # Og 
364 122 11 -0.325600 46.513390 38.626453 2.320000 # Og 
365 122 5 0.651200 46.513390 38.626453 1.160000 # Cg 
366 122 11 -0.325600 46.513390 38.626453 0.000000 # Og 
367 123 11 -0.325600 46.513390 38.627453 5.396000 # Og 
368 123 5 0.651200 46.513390 38.627453 4.236000 # Cg 
369 123 11 -0.325600 46.513390 38.627453 3.076000 # Og 
370 124 11 -0.325600 46.514389 38.628452 8.471000 # Og 
371 124 5 0.651200 46.514389 38.628452 7.311000 # Cg 
372 124 11 -0.325600 46.514389 38.628452 6.151000 # Og 
373 125 11 -0.325600 46.514389 38.629452 11.547000 # Og 
374 125 5 0.651200 46.514389 38.629452 10.387000 # Cg 
375 125 11 -0.325600 46.514389 38.629452 9.227000 # Og 
376 126 11 -0.325600 46.515388 38.630455 14.622000 # Og 
377 126 5 0.651200 46.515388 38.630455 13.462000 # Cg 
378 126 11 -0.325600 46.515388 38.630455 12.302000 # Og 
379 127 11 -0.325600 19.154833 10.177895 17.697989 # Og 
380 127 5 0.651200 19.154833 10.177895 16.537989 # Cg 
381 127 11 -0.325600 19.154833 10.177895 15.377989 # Og 
382 128 11 -0.325600 19.155832 10.178894 20.772989 # Og 
383 128 5 0.651200 19.155832 10.178894 19.612988 # Cg 
384 128 11 -0.325600 19.155832 10.178894 18.452988 # Og 
385 129 11 -0.325600 19.155832 10.179894 23.848989 # Og 
386 129 5 0.651200 19.155832 10.179894 22.688988 # Cg 
387 129 11 -0.325600 19.155832 10.179894 21.528988 # Og 
388 130 11 -0.325600 19.156834 10.180895 26.923988 # Og 
389 130 5 0.651200 19.156834 10.180895 25.763988 # Cg 
390 130 11 -0.325600 19.156834 10.180895 24.603989 # Og 
391 131 11 -0.325600 19.152000 10.207000 2.320000 # Og 
392 131 5 0.651200 19.152000 10.207000 1.160000 # Cg 
393 131 11 -0.325600 19.152000 10.207000 0.000000 # Og 
394 132 11 -0.325600 19.153000 10.208000 5.396000 # Og 
395 132 5 0.651200 19.153000 10.208000 4.236000 # Cg 
396 132 11 -0.325600 19.153000 10.208000 3.076000 # Og 
397 133 11 -0.325600 19.153000 10.209000 8.471000 # Og 
398 133 5 0.651200 19.153000 10.209000 7.311000 # Cg 
399 133 11 -0.325600 19.153000 10.209000 6.151000 # Og 
400 134 11 -0.325600 19.153999 10.209000 11.547000 # Og 
401 134 5 0.651200 19.153999 10.209000 10.387000 # Cg 
402 134 11 -0.325600 19.153999 10.209000 9.227000 # Og 
403 135 11 -0.325600 19.153999 10.209999 14.622000 # Og 
404 135 5 0.651200 19.153999 10.209999 13.462000 # Cg 
405 135 11 -0.325600 19.153999 10.209999 12.302000 # Og 
406 136 11 -0.325600 13.682833 19.650894 17.697989 # Og 
407 136 5 0.651200 13.682833 19.650894 16.537989 # Cg 
408 136 11 -0.325600 13.682833 19.650894 15.377989 # Og 
409 137 11 -0.325600 13.683832 19.651894 20.772989 # Og 
410 137 5 0.651200 13.683832 19.651894 19.612988 # Cg 
411 137 11 -0.325600 13.683832 19.651894 18.452988 # Og 
412 138 11 -0.325600 13.683832 19.652895 23.848989 # Og 
413 138 5 0.651200 13.683832 19.652895 22.688988 # Cg 
414 138 11 -0.325600 13.683832 19.652895 21.528988 # Og 
415 139 11 -0.325600 13.684833 19.653894 26.923988 # Og 
416 139 5 0.651200 13.684833 19.653894 25.763988 # Cg 
417 139 11 -0.325600 13.684833 19.653894 24.603989 # Og 
418 140 11 -0.325600 13.681000 19.680000 2.320000 # Og 
419 140 5 0.651200 13.681000 19.680000 1.160000 # Cg 
420 140 11 -0.325600 13.681000 19.680000 0.000000 # Og 
421 141 6 0.186000 23.398062 37.097843 22.712994 # H LIG
422 141 6 0.186000 28.529060 30.732845 18.235992 # H LIG
423 141 6 0.186000 28.505062 28.451845 24.192993 # H LIG
424 141 6 0.186000 27.286060 30.087845 20.400993 # H LIG
425 141 6 0.186000 10.296674 0.991393 21.867992 # H LIG
426 141 6 0.186000 30.210060 37.762844 22.837994 # H LIG
427 141 6 0.186000 31.421062 36.944843 18.100994 # H LIG
428 141 6 0.186000 21.333061 36.784843 19.557993 # H LIG
429 141 6 0.186000 23.297060 35.640846 20.527992 # H LIG
430 141 6 0.186000 42.357674 0.895393 18.805994 # H LIG
431 141 6 0.186000 32.281673 1.050393 17.348993 # H LIG
432 141 6 0.186000 34.243675 2.191393 23.295994 # H LIG
433 141 6 0.186000 39.514675 9.393394 19.663994 # H LIG
434 141 6 0.186000 34.349674 0.736393 21.112993 # H LIG
435 141 6 0.186000 39.535675 7.122394 18.690994 # H LIG
436 141 6 0.186000 41.148674 0.075392 20.986994 # H LIG
437 141 6 0.186000 21.234060 36.839844 21.959993 # H LIG
438 141 6 0.186000 38.199677 7.754394 23.422993 # H LIG
439 141 7 1.560000 26.851061 33.809845 18.408993 # Mg LIG
440 141 7 1.560000 28.410061 34.723843 23.022993 # Mg LIG
441 141 7 1.560000 26.833061 35.615845 20.716993 # Mg LIG
442 141 7 1.560000 37.779675 2.228392 23.105993 # Mg LIG
443 141 7 1.560000 37.793674 4.042393 18.494993 # Mg LIG
444 141 7 1.560000 39.353676 3.123393 20.800993 # Mg LIG
445 141 3 0.456000 27.957062 31.715845 23.336994 # Cc LIG
446 141 2 -0.314000 24.453060 36.095844 17.347994 # Cb LIG
447 141 4 -0.234000 23.337061 36.768845 23.750994 # Cd LIG
448 141 2 -0.314000 22.199060 37.042843 17.589993 # Cb LIG
449 141 4 -0.234000 28.233061 29.301846 23.563993 # Cd LIG
450 141 4 -0.234000 28.256062 30.573845 24.110992 # Cd LIG
451 141 1 0.900000 25.584061 35.841843 23.344994 # Ca LIG
452 141 3 0.456000 29.661060 36.736843 21.030994 # Cc LIG
453 141 2 -0.314000 27.621061 31.504845 21.958994 # Cb LIG
454 141 4 -0.234000 27.587061 30.197845 21.442993 # Cd LIG
455 141 2 -0.314000 27.901062 29.076845 22.209993 # Cb LIG
456 141 4 -0.234000 9.709674 0.311393 21.246994 # Cd LIG
457 141 4 -0.234000 30.488060 37.586845 21.796993 # Cd LIG
458 141 1 0.900000 27.282063 32.608845 21.033993 # Ca LIG
459 141 3 0.456000 24.463060 35.687843 18.721992 # Cc LIG
460 141 2 -0.314000 30.018061 36.539845 19.655994 # Cb LIG
461 141 4 -0.234000 31.168060 37.162846 19.138992 # Cd LIG
462 141 2 -0.314000 10.082674 0.115392 19.898994 # Cb LIG
463 141 4 -0.234000 22.216061 36.620846 18.936993 # Cd LIG
464 141 4 -0.234000 23.310061 35.971844 19.487993 # Cd LIG
465 141 1 0.900000 29.233061 35.692844 18.731995 # Ca LIG
466 141 3 0.456000 35.409676 2.154393 18.180992 # Cc LIG
467 141 2 -0.314000 40.959675 1.300393 24.167994 # Cb LIG
468 141 4 -0.234000 42.104675 0.678393 17.766994 # Cd LIG
469 141 2 -0.314000 21.022060 37.716843 23.926994 # Cb LIG
470 141 4 -0.234000 33.165676 1.216393 17.967995 # Cd LIG
471 141 4 -0.234000 34.256676 1.867393 17.416992 # Cd LIG
472 141 1 0.900000 40.176674 2.158393 18.171993 # Ca LIG
473 141 3 0.456000 38.909676 6.131393 20.491993 # Cc LIG
474 141 2 -0.314000 35.401676 1.746393 19.554993 # Cb LIG
475 141 4 -0.234000 34.286674 1.065393 20.074993 # Cd LIG
476 141 2 -0.314000 33.149673 0.795393 19.314995 # Cb LIG
477 141 4 -0.234000 39.214676 8.544393 20.281994 # Cd LIG
478 141 4 -0.234000 39.237675 7.274392 19.729994 # Cd LIG
479 141 1 0.900000 36.530674 1.999393 20.477993 # Ca LIG
480 141 3 0.456000 40.603676 1.105393 22.793993 # Cc LIG
481 141 2 -0.314000 38.556675 6.340393 21.865993 # Cb LIG
482 141 4 -0.234000 38.517673 7.647393 22.384995 # Cd LIG
483 141 2 -0.314000 38.849674 8.768394 21.626993 # Cb LIG
484 141 4 -0.234000 20.649061 37.521843 22.579994 # Cd LIG
485 141 4 -0.234000 41.427673 0.250393 22.027994 # Cd LIG
486 141 1 0.900000 38.215675 5.235394 22.788994 # Ca LIG
487 141 10 -0.903000 39.534676 1.678393 22.210993 # Oc LIG
488 141 8 -0.899000 38.339676 4.019393 22.360992 # Oa LIG
489 141 9 -0.752000 40.569675 2.373393 19.362993 # Ob LIG
490 141 10 -0.903000 38.953674 4.920393 19.907993 # Oc LIG
491 141 8 -0.899000 37.522675 2.714392 20.051994 # Oa LIG
492 141 9 -0.752000 37.831676 5.466393 23.979994 # Ob LIG
493 141 10 -0.903000 36.437675 2.796393 17.598993 # Oc LIG
494 141 8 -0.899000 39.062675 2.662392 17.744993 # Oa LIG
495 141 9 -0.752000 36.521675 1.549392 21.668993 # Ob LIG
496 141 10 -0.903000 25.493061 35.048843 19.304993 # Oc LIG
497 141 8 -0.899000 28.117062 35.192844 19.156994 # Oa LIG
498 141 9 -0.752000 25.573061 36.290844 22.153994 # Ob LIG
499 141 10 -0.903000 28.008060 32.928844 23.914993 # Oc LIG
500 141 8 -0.899000 26.579062 35.131844 23.770994 # Oa LIG
501 141 9 -0.752000 26.903061 32.376846 19.841993 # Ob LIG
502 141 10 -0.903000 28.589062 36.169846 21.611994 # Oc LIG
503 141 8 -0.899000 27.400061 33.824844 21.461994 # Oa LIG
504 141 9 -0.752000 29.626060 35.476845 17.539993 # Ob LIG
505 141 6 0.186000 23.394436 37.125042 1.953001 # H LIG
506 141 6 0.186000 28.530270 30.734938 25.155991 # H LIG
507 141 6 0.186000 28.501436 28.479042 3.433002 # H LIG
508 141 6 0.186000 27.287270 30.089937 27.320990 # H LIG
509 141 6 0.186000 10.293049 1.018591 1.108001 # H LIG
510 141 6 0.186000 30.206436 37.790043 2.078001 # H LIG
511 141 6 0.186000 31.422268 36.946938 25.020990 # H LIG
512 141 6 0.186000 21.334269 36.786938 26.477989 # H LIG
513 141 6 0.186000 23.298269 35.642937 27.447990 # H LIG
514 141 6 0.186000 42.358883 0.897485 25.725990 # H LIG
515 141 6 0.186000 32.282883 1.052485 24.268990 # H LIG
516 141 6 0.186000 34.240051 2.218591 2.536001 # H LIG
517 141 6 0.186000 39.515884 9.395486 26.583990 # H LIG
518 141 6 0.186000 34.346050 0.763591 0.353001 # H LIG
519 141 6 0.186000 39.536884 7.124486 25.610991 # H LIG
520 141 6 0.186000 41.145050 0.102591 0.227001 # H LIG
521 141 6 0.186000 21.230436 36.867043 1.200001 # H LIG
522 141 6 0.186000 38.196053 7.781591 2.663002 # H LIG
523 141 7 1.560000 26.852268 33.811935 25.328991 # Mg LIG
524 141 7 1.560000 28.406437 34.751041 2.263001 # Mg LIG
525 141 7 1.560000 26.834269 35.617935 27.636990 # Mg LIG
526 141 7 1.560000 37.776051 2.255590 2.346002 # Mg LIG
527 141 7 1.560000 37.794884 4.044485 25.414989 # Mg LIG
528 141 7 1.560000 39.350052 3.150591 0.041001 # Mg LIG
529 141 3 0.456000 27.953436 31.743042 2.577002 # Cc LIG