LAMMPS data file. CGCMM style. atom_style full generated by VMD/TopoTools v1.5 on Sun Mar 05 19:09:46 PST 2017
 1370 atoms
 0 bonds
 0 angles
 0 dihedrals
 0 impropers
 10 atom types
 0 bond types
 0 angle types
 0 dihedral types
 0 improper types
 0.439550 26.456750  xlo xhi
 0.332838 45.395937  ylo yhi
 -0.387750 26.927729  zlo zhi

# Pair Coeffs
#
# 1  CH4
# 2  Ca
# 3  Cb
# 4  Cc
# 5  Cd
# 6  H
# 7  Ni
# 8  Oa
# 9  Ob
# 10  Oc

 Masses

 1 16.040001 # CH4
 2 12.011000 # Ca
 3 12.011000 # Cb
 4 12.011000 # Cc
 5 12.011000 # Cd
 6 1.008000 # H
 7 58.693001 # Ni
 8 15.999000 # Oa
 9 15.999000 # Ob
 10 15.999000 # Oc

 Atoms

1 1 1 0.000000 26.017300 45.062775 14.376000 # CH4 
2 1 1 0.000000 26.017300 45.062775 15.814000 # CH4 
3 1 1 0.000000 26.017300 45.062775 17.250999 # CH4 
4 1 1 0.000000 26.017300 45.062775 18.688999 # CH4 
5 1 1 0.000000 26.017300 45.062775 20.127001 # CH4 
6 1 1 0.000000 26.017300 45.062775 21.564001 # CH4 
7 1 1 0.000000 26.017300 45.062775 23.002001 # CH4 
8 1 1 0.000000 26.017300 45.062775 24.440001 # CH4 
9 1 1 0.000000 26.017300 45.062775 25.877001 # CH4 
10 1 1 0.000000 26.017300 45.062775 0.000000 # CH4 
11 1 1 0.000000 26.017300 45.062775 1.438000 # CH4 
12 1 1 0.000000 26.017300 45.062775 2.875000 # CH4 
13 1 1 0.000000 26.017300 45.062775 4.313000 # CH4 
14 1 1 0.000000 26.017300 45.062775 5.751000 # CH4 
15 1 1 0.000000 26.017300 45.062775 7.188000 # CH4 
16 1 1 0.000000 26.017300 45.062775 8.626000 # CH4 
17 1 1 0.000000 26.017300 45.062775 10.064000 # CH4 
18 1 1 0.000000 26.017300 45.062775 11.501000 # CH4 
19 1 1 0.000000 26.017300 45.062775 12.939000 # CH4 
20 1 1 0.000000 26.017300 22.531775 14.376000 # CH4 
21 1 1 0.000000 26.017300 22.531775 15.814000 # CH4 
22 1 1 0.000000 26.017300 22.531775 17.250999 # CH4 
23 1 1 0.000000 26.017300 22.531775 18.688999 # CH4 
24 1 1 0.000000 26.017300 22.531775 20.127001 # CH4 
25 1 1 0.000000 26.017300 22.531775 21.564001 # CH4 
26 1 1 0.000000 26.017300 22.531775 23.002001 # CH4 
27 1 1 0.000000 26.017300 22.531775 24.440001 # CH4 
28 1 1 0.000000 26.017300 22.531775 25.877001 # CH4 
29 1 1 0.000000 26.017300 22.531775 0.000000 # CH4 
30 1 1 0.000000 26.017300 22.531775 1.438000 # CH4 
31 1 1 0.000000 26.017300 22.531775 2.875000 # CH4 
32 1 1 0.000000 26.017300 22.531775 4.313000 # CH4 
33 1 1 0.000000 26.017300 22.531775 5.751000 # CH4 
34 1 1 0.000000 26.017300 22.531775 7.188000 # CH4 
35 1 1 0.000000 26.017300 22.531775 8.626000 # CH4 
36 1 1 0.000000 26.017300 22.531775 10.064000 # CH4 
37 1 1 0.000000 26.017300 22.531775 11.501000 # CH4 
38 1 1 0.000000 26.017300 22.531775 12.939000 # CH4 
39 1 1 0.000000 13.008301 45.062775 14.376000 # CH4 
40 1 1 0.000000 13.008301 45.062775 15.814000 # CH4 
41 1 1 0.000000 13.008301 45.062775 17.250999 # CH4 
42 1 1 0.000000 13.008301 45.062775 18.688999 # CH4 
43 1 1 0.000000 13.008301 45.062775 20.127001 # CH4 
44 1 1 0.000000 13.008301 45.062775 21.564001 # CH4 
45 1 1 0.000000 13.008301 45.062775 23.002001 # CH4 
46 1 1 0.000000 13.008301 45.062775 24.440001 # CH4 
47 1 1 0.000000 13.008301 45.062775 25.877001 # CH4 
48 1 1 0.000000 13.008301 45.062775 0.000000 # CH4 
49 1 1 0.000000 13.008301 45.062775 1.438000 # CH4 
50 1 1 0.000000 13.008301 45.062775 2.875000 # CH4 
51 1 1 0.000000 13.008301 45.062775 4.313000 # CH4 
52 1 1 0.000000 13.008301 45.062775 5.751000 # CH4 
53 1 1 0.000000 13.008301 45.062775 7.188000 # CH4 
54 1 1 0.000000 13.008301 45.062775 8.626000 # CH4 
55 1 1 0.000000 13.008301 45.062775 10.064000 # CH4 
56 1 1 0.000000 13.008301 45.062775 11.501000 # CH4 
57 1 1 0.000000 13.008301 45.062775 12.939000 # CH4 
58 1 1 0.000000 13.008301 22.531775 14.376000 # CH4 
59 1 1 0.000000 13.008301 22.531775 15.814000 # CH4 
60 1 1 0.000000 13.008301 22.531775 17.250999 # CH4 
61 1 1 0.000000 13.008301 22.531775 18.688999 # CH4 
62 1 1 0.000000 13.008301 22.531775 20.127001 # CH4 
63 1 1 0.000000 13.008301 22.531775 21.564001 # CH4 
64 1 1 0.000000 13.008301 22.531775 23.002001 # CH4 
65 1 1 0.000000 13.008301 22.531775 24.440001 # CH4 
66 1 1 0.000000 13.008301 22.531775 25.877001 # CH4 
67 1 1 0.000000 13.008301 22.531775 0.000000 # CH4 
68 1 1 0.000000 13.008301 22.531775 1.438000 # CH4 
69 1 1 0.000000 13.008301 22.531775 2.875000 # CH4 
70 1 1 0.000000 13.008301 22.531775 4.313000 # CH4 
71 1 1 0.000000 13.008301 22.531775 5.751000 # CH4 
72 1 1 0.000000 13.008301 22.531775 7.188000 # CH4 
73 1 1 0.000000 13.008301 22.531775 8.626000 # CH4 
74 1 1 0.000000 13.008301 22.531775 10.064000 # CH4 
75 1 9 0.000000 23.941000 21.823999 20.945980 # Ob LIG
76 2 9 0.000000 10.932000 44.355999 20.945980 # Ob LIG
77 3 9 0.000000 23.941000 6.803000 23.221979 # Ob LIG
78 4 9 0.000000 10.932000 29.334000 23.221979 # Ob LIG
79 5 10 0.000000 23.514999 7.995000 20.491980 # Oc LIG
80 6 10 0.000000 10.506000 30.527000 20.491980 # Oc LIG
81 1 8 0.000000 22.554001 7.442000 18.022980 # Oa LIG
82 2 8 0.000000 9.546000 29.973000 18.022980 # Oa LIG
83 1 8 0.000000 22.554001 22.462999 22.575979 # Oa LIG
84 2 8 0.000000 9.546000 44.993999 22.575979 # Oa LIG
85 3 8 0.000000 21.304001 8.301000 22.575979 # Oa LIG
86 4 8 0.000000 8.295000 30.833000 22.575979 # Oa LIG
87 3 9 0.000000 21.164000 9.821000 20.945980 # Ob LIG
88 4 9 0.000000 8.155000 32.353001 20.945980 # Ob LIG
89 7 10 0.000000 21.184000 20.701000 20.491980 # Oc LIG
90 8 10 0.000000 8.176000 43.233002 20.491980 # Oc LIG
91 3 8 0.000000 21.184999 21.809999 18.022980 # Oa LIG
92 2 8 0.000000 8.176000 44.341000 18.022980 # Oa LIG
93 1 9 0.000000 19.938000 20.927999 23.221979 # Ob LIG
94 2 9 0.000000 6.930000 43.459999 23.221979 # Ob LIG
95 9 9 0.000000 19.087999 16.624001 22.302979 # Ob LIG
96 10 9 0.000000 6.079000 39.155998 22.302979 # Ob LIG
97 11 10 0.000000 18.681999 13.676000 22.756979 # Oc LIG
98 12 10 0.000000 5.673000 36.207001 22.756979 # Oc LIG
99 9 8 0.000000 17.841000 15.743000 20.672979 # Oa LIG
100 10 8 0.000000 4.833000 38.275002 20.672979 # Oa LIG
101 13 10 0.000000 17.841999 16.851000 18.204979 # Oc LIG
102 14 10 0.000000 4.833000 39.382999 18.204979 # Oc LIG
103 15 10 0.000000 10.506000 0.485000 18.214979 # Oc LIG
104 4 10 0.000000 23.514999 23.017000 18.214979 # Oc LIG
105 16 10 0.000000 10.506000 15.506000 22.767979 # Oc LIG
106 17 10 0.000000 23.514999 38.036999 22.767979 # Oc LIG
107 18 9 0.000000 10.932000 14.313000 18.668980 # Ob LIG
108 19 9 0.000000 23.941000 36.845001 18.668980 # Ob LIG
109 20 9 0.000000 15.085000 0.708000 20.026979 # Ob LIG
110 21 9 0.000000 2.076000 23.239000 20.026979 # Ob LIG
111 22 9 0.000000 15.085000 15.729000 17.750980 # Ob LIG
112 23 9 0.000000 2.077000 38.259998 17.750980 # Ob LIG
113 24 10 0.000000 15.511000 14.536000 20.480980 # Oc LIG
114 25 10 0.000000 2.503000 37.068001 20.480980 # Oc LIG
115 5 8 0.000000 16.471001 15.090000 22.948978 # Oa LIG
116 6 8 0.000000 3.463000 37.620998 22.948978 # Oa LIG
117 20 8 0.000000 16.471001 0.069000 18.396980 # Oa LIG
118 21 8 0.000000 3.463000 22.601000 18.396980 # Oa LIG
119 22 8 0.000000 17.722000 14.230000 18.396980 # Oa LIG
120 23 8 0.000000 4.713000 36.762001 18.396980 # Oa LIG
121 22 9 0.000000 17.862000 12.710000 20.026979 # Ob LIG
122 23 9 0.000000 4.853000 35.242001 20.026979 # Ob LIG
123 26 10 0.000000 17.841000 1.831000 20.480980 # Oc LIG
124 27 10 0.000000 4.833000 24.362000 20.480980 # Oc LIG
125 20 8 0.000000 17.841000 0.722000 22.948978 # Oa LIG
126 28 8 0.000000 4.833000 23.254000 22.948978 # Oa LIG
127 20 9 0.000000 19.087000 1.603000 17.750980 # Ob LIG
128 21 9 0.000000 6.079000 24.135000 17.750980 # Ob LIG
129 28 9 0.000000 19.938000 5.907000 18.668980 # Ob LIG
130 28 9 0.000000 6.930000 28.438999 18.668980 # Ob LIG
131 28 9 0.000000 2.076000 8.218000 22.302979 # Ob LIG
132 28 9 0.000000 15.085000 30.750000 22.302979 # Ob LIG
133 28 10 0.000000 2.503000 7.026000 18.204979 # Oc LIG
134 28 10 0.000000 15.511000 29.556999 18.204979 # Oc LIG
135 28 10 0.000000 2.503000 22.047001 22.756979 # Oc LIG
136 28 10 0.000000 15.511000 44.577999 22.756979 # Oc LIG
137 28 10 0.000000 20.344000 8.856000 18.215981 # Oc LIG
138 28 10 0.000000 7.336000 31.388000 18.215981 # Oc LIG
139 28 8 0.000000 21.184999 6.789000 20.299980 # Oa LIG
140 28 8 0.000000 8.176000 29.320000 20.299980 # Oa LIG
141 28 10 0.000000 21.184000 5.680000 22.767979 # Oc LIG
142 28 10 0.000000 8.176000 28.212000 22.767979 # Oc LIG
143 28 8 0.000000 3.463000 7.579000 20.672979 # Oa LIG
144 28 8 0.000000 16.471001 30.111000 20.672979 # Oa LIG
145 28 8 0.000000 4.713000 6.720000 22.948978 # Oa LIG
146 28 8 0.000000 17.722000 29.250999 22.948978 # Oa LIG
147 28 8 0.000000 4.713000 21.740999 20.672979 # Oa LIG
148 28 8 0.000000 17.722000 44.271999 20.672979 # Oa LIG
149 28 9 0.000000 4.853000 5.200000 17.750980 # Ob LIG
150 28 9 0.000000 17.862000 27.731001 17.750980 # Ob LIG
151 28 9 0.000000 4.853000 20.221001 22.302979 # Ob LIG
152 28 9 0.000000 17.862000 42.751999 22.302979 # Ob LIG
153 28 10 0.000000 4.833000 9.341000 22.756979 # Oc LIG
154 28 10 0.000000 17.841000 31.872999 22.756979 # Oc LIG
155 28 8 0.000000 4.833000 8.232000 18.396980 # Oa LIG
156 28 8 0.000000 17.841000 30.764000 18.396980 # Oa LIG
157 28 10 0.000000 5.673000 6.165000 20.480980 # Oc LIG
158 28 10 0.000000 18.681999 28.697001 20.480980 # Oc LIG
159 28 10 0.000000 5.673000 21.186001 18.204979 # Oc LIG
160 28 10 0.000000 18.681000 43.717999 18.204979 # Oc LIG
161 28 9 0.000000 6.079000 9.114000 20.026979 # Ob LIG
162 28 9 0.000000 19.087000 31.645000 20.026979 # Ob LIG
163 28 9 0.000000 6.930000 13.418000 20.945980 # Ob LIG
164 28 9 0.000000 19.938000 35.949001 20.945980 # Ob LIG
165 28 10 0.000000 7.336000 1.345000 22.767979 # Oc LIG
166 28 10 0.000000 20.344000 23.877001 22.767979 # Oc LIG
167 28 10 0.000000 7.336000 16.365999 20.491980 # Oc LIG
168 28 10 0.000000 20.344000 38.897999 20.491980 # Oc LIG
169 28 8 0.000000 8.176000 14.299000 22.575979 # Oa LIG
170 28 8 0.000000 21.184999 36.831001 22.575979 # Oa LIG
171 28 10 0.000000 8.176000 13.190000 18.214979 # Oc LIG
172 28 10 0.000000 21.184000 35.722000 18.214979 # Oc LIG
173 28 9 0.000000 8.155000 2.311000 18.668980 # Ob LIG
174 28 9 0.000000 21.164000 24.841999 18.668980 # Ob LIG
175 28 9 0.000000 8.155000 17.332001 23.221979 # Ob LIG
176 28 9 0.000000 21.164000 39.862999 23.221979 # Ob LIG
177 28 8 0.000000 8.296000 0.791000 20.299980 # Oa LIG
178 28 8 0.000000 21.304001 23.322001 20.299980 # Oa LIG
179 28 8 0.000000 8.295000 15.812000 18.022980 # Oa LIG
180 28 8 0.000000 21.304001 38.342999 18.022980 # Oa LIG
181 18 8 0.000000 9.546000 14.952000 20.299980 # Oa LIG
182 19 8 0.000000 22.554001 37.484001 20.299980 # Oa LIG
183 5 5 0.000000 25.868000 7.878000 20.672979 # Cd LIG
184 6 5 0.000000 12.860000 30.409000 20.672979 # Cd LIG
185 5 3 0.000000 24.879999 7.373000 18.527981 # Cb LIG
186 28 3 0.000000 11.871000 29.905001 18.527981 # Cb LIG
187 1 3 0.000000 24.879999 22.393999 23.080978 # Cb LIG
188 28 3 0.000000 11.871000 44.925999 23.080978 # Cb LIG
189 5 4 0.000000 24.708000 7.749000 19.900980 # Cc LIG
190 6 4 0.000000 11.699000 30.280001 19.900980 # Cc LIG
191 1 2 0.000000 23.745001 22.209999 22.137980 # Ca LIG
192 2 2 0.000000 10.736000 44.741001 22.137980 # Ca LIG
193 1 2 0.000000 23.745001 7.188000 17.585979 # Ca LIG
194 2 2 0.000000 10.736000 29.719999 17.585979 # Ca LIG
195 3 2 0.000000 20.927999 9.459000 22.137980 # Ca LIG
196 4 2 0.000000 7.919000 31.990999 22.137980 # Ca LIG
197 7 4 0.000000 20.374001 19.791000 19.900980 # Cc LIG
198 8 4 0.000000 7.365000 42.323002 19.900980 # Cc LIG
199 3 2 0.000000 20.370001 20.905001 17.585979 # Ca LIG
200 2 2 0.000000 7.361000 43.437000 17.585979 # Ca LIG
201 11 3 0.000000 20.201000 10.350000 23.080978 # Cb LIG
202 12 3 0.000000 7.192000 32.881001 23.080978 # Cb LIG
203 13 3 0.000000 19.962999 19.830000 18.527981 # Cb LIG
204 14 3 0.000000 6.954000 42.362000 18.527981 # Cb LIG
205 7 5 0.000000 19.905001 18.722000 20.672979 # Cd LIG
206 8 5 0.000000 6.897000 41.252998 20.672979 # Cd LIG
207 11 5 0.000000 19.757000 11.578000 22.575979 # Cd LIG
208 12 5 0.000000 6.749000 34.110001 22.575979 # Cd LIG
209 13 5 0.000000 19.120001 18.830999 18.022980 # Cd LIG
210 14 5 0.000000 6.112000 41.362999 18.022980 # Cd LIG
211 7 3 0.000000 19.063000 17.723000 20.167980 # Cb LIG
212 8 3 0.000000 6.055000 40.254002 20.167980 # Cb LIG
213 11 4 0.000000 19.065001 12.519000 23.347980 # Cc LIG
214 12 4 0.000000 6.056000 35.050999 23.347980 # Cc LIG
215 9 2 0.000000 18.656000 16.646999 21.110979 # Ca LIG
216 10 2 0.000000 5.647000 39.179001 21.110979 # Ca LIG
217 13 4 0.000000 18.652000 17.761000 18.795979 # Cc LIG
218 14 4 0.000000 5.643000 40.292999 18.795979 # Cc LIG
219 28 5 0.000000 0.149000 7.143000 18.022980 # Cd LIG
220 28 5 0.000000 13.157000 29.674999 18.022980 # Cd LIG
221 28 5 0.000000 0.149000 22.164000 22.575979 # Cd LIG
222 28 5 0.000000 13.157000 44.695999 22.575979 # Cd LIG
223 28 3 0.000000 1.137000 7.648000 20.167980 # Cb LIG
224 6 3 0.000000 14.146000 30.179001 20.167980 # Cb LIG
225 28 4 0.000000 1.309000 22.292999 23.347980 # Cc LIG
226 28 4 0.000000 14.318000 44.825001 23.347980 # Cc LIG
227 28 4 0.000000 1.309000 7.272000 18.795979 # Cc LIG
228 28 4 0.000000 14.318000 29.804001 18.795979 # Cc LIG
229 18 2 0.000000 10.736000 14.699000 19.861980 # Ca LIG
230 19 2 0.000000 23.745001 37.230000 19.861980 # Ca LIG
231 16 4 0.000000 11.699000 15.259000 22.176979 # Cc LIG
232 17 4 0.000000 24.708000 37.791000 22.176979 # Cc LIG
233 15 4 0.000000 11.699000 0.238000 17.624979 # Cc LIG
234 4 4 0.000000 24.708000 22.770000 17.624979 # Cc LIG
235 24 3 0.000000 11.871000 14.884000 20.804979 # Cb LIG
236 17 3 0.000000 24.879999 37.415001 20.804979 # Cb LIG
237 15 5 0.000000 12.860000 0.367000 18.396980 # Cd LIG
238 4 5 0.000000 25.868999 22.899000 18.396980 # Cd LIG
239 16 5 0.000000 12.860000 15.388000 22.949980 # Cd LIG
240 17 5 0.000000 25.868000 37.919998 22.949980 # Cd LIG
241 24 5 0.000000 13.157000 14.654000 20.299980 # Cd LIG
242 25 5 0.000000 0.149000 37.185001 20.299980 # Cd LIG
243 16 3 0.000000 14.146000 15.158000 22.443979 # Cb LIG
244 25 3 0.000000 1.137000 37.689999 22.443979 # Cb LIG
245 15 3 0.000000 14.146000 0.137000 17.891979 # Cb LIG
246 21 3 0.000000 1.137000 22.669001 17.891979 # Cb LIG
247 24 4 0.000000 14.318000 14.783000 21.071980 # Cc LIG
248 25 4 0.000000 1.309000 37.313999 21.071980 # Cc LIG
249 20 2 0.000000 15.281000 0.322000 18.834980 # Ca LIG
250 21 2 0.000000 2.272000 22.854000 18.834980 # Ca LIG
251 5 2 0.000000 15.281000 15.343000 23.386980 # Ca LIG
252 6 2 0.000000 2.272000 37.875000 23.386980 # Ca LIG
253 22 2 0.000000 18.098000 13.072000 18.833981 # Ca LIG
254 23 2 0.000000 5.089000 35.604000 18.833981 # Ca LIG
255 26 4 0.000000 18.652000 2.740000 21.071980 # Cc LIG
256 27 4 0.000000 5.643000 25.271999 21.071980 # Cc LIG
257 20 2 0.000000 18.656000 1.626000 23.386980 # Ca LIG
258 28 2 0.000000 5.647000 24.158001 23.386980 # Ca LIG
259 28 3 0.000000 18.825001 12.182000 17.891979 # Cb LIG
260 28 3 0.000000 5.816000 34.714001 17.891979 # Cb LIG
261 28 3 0.000000 19.063000 2.701000 22.443979 # Cb LIG
262 28 3 0.000000 6.055000 25.233000 22.443979 # Cb LIG
263 26 5 0.000000 19.120001 3.810000 20.299980 # Cd LIG
264 27 5 0.000000 6.111000 26.341999 20.299980 # Cd LIG
265 28 5 0.000000 19.268999 10.953000 18.396980 # Cd LIG
266 28 5 0.000000 6.260000 33.485001 18.396980 # Cd LIG
267 28 5 0.000000 19.906000 3.700000 22.948978 # Cd LIG
268 28 5 0.000000 6.897000 26.232000 22.948978 # Cd LIG
269 28 2 0.000000 2.272000 7.833000 21.110979 # Ca LIG
270 28 2 0.000000 15.281000 30.364000 21.110979 # Ca LIG
271 26 3 0.000000 19.962000 4.809000 20.804979 # Cb LIG
272 27 3 0.000000 6.954000 27.341000 20.804979 # Cb LIG
273 28 4 0.000000 19.961000 10.013000 17.624979 # Cc LIG
274 28 4 0.000000 6.953000 32.543999 17.624979 # Cc LIG
275 28 2 0.000000 20.370001 5.884000 19.861980 # Ca LIG
276 28 2 0.000000 7.361000 28.416000 19.861980 # Ca LIG
277 28 4 0.000000 20.374001 4.770000 22.176979 # Cc LIG
278 28 4 0.000000 7.366000 27.302000 22.176979 # Cc LIG
279 28 2 0.000000 5.089000 5.562000 23.386980 # Ca LIG
280 28 2 0.000000 18.098000 28.093000 23.386980 # Ca LIG
281 28 2 0.000000 5.089000 20.583000 21.110979 # Ca LIG
282 28 2 0.000000 18.098000 43.115002 21.110979 # Ca LIG
283 28 4 0.000000 5.643000 10.251000 23.347980 # Cc LIG
284 28 4 0.000000 18.652000 32.783001 23.347980 # Cc LIG
285 28 2 0.000000 5.647000 9.137000 18.834980 # Ca LIG
286 28 2 0.000000 18.656000 31.667999 18.834980 # Ca LIG
287 28 3 0.000000 5.816000 4.671000 22.443979 # Cb LIG
288 28 3 0.000000 18.825001 27.202999 22.443979 # Cb LIG
289 28 3 0.000000 5.817000 19.693001 20.167980 # Cb LIG
290 28 3 0.000000 18.825001 42.223999 20.167980 # Cb LIG
291 28 4 0.000000 6.056000 5.008000 21.071980 # Cc LIG
292 28 4 0.000000 19.065001 27.540001 21.071980 # Cc LIG
293 28 4 0.000000 6.056000 20.028999 18.795979 # Cc LIG
294 28 4 0.000000 19.063999 42.561001 18.795979 # Cc LIG
295 28 3 0.000000 6.055000 10.212000 17.891979 # Cb LIG
296 28 3 0.000000 19.063000 32.743000 17.891979 # Cb LIG
297 28 5 0.000000 6.111000 11.321000 22.575979 # Cd LIG
298 28 5 0.000000 19.120001 33.852001 22.575979 # Cd LIG
299 28 5 0.000000 6.260000 3.443000 22.948978 # Cd LIG
300 28 5 0.000000 19.268999 25.974001 22.948978 # Cd LIG
301 28 5 0.000000 6.261000 18.464001 20.672979 # Cd LIG
302 28 5 0.000000 19.268999 40.994999 20.672979 # Cd LIG
303 28 5 0.000000 6.748000 4.068000 20.299980 # Cd LIG
304 28 5 0.000000 19.757000 26.599001 20.299980 # Cd LIG
305 28 5 0.000000 6.748000 19.089001 18.022980 # Cd LIG
306 28 5 0.000000 19.757000 41.619999 18.022980 # Cd LIG
307 28 5 0.000000 6.897000 11.211000 18.396980 # Cd LIG
308 28 5 0.000000 19.906000 33.742001 18.396980 # Cd LIG
309 28 3 0.000000 6.954000 12.320000 23.080978 # Cb LIG
310 28 3 0.000000 19.962000 34.851002 23.080978 # Cb LIG
311 28 4 0.000000 6.953000 2.502000 22.176979 # Cc LIG
312 28 4 0.000000 19.961000 25.034000 22.176979 # Cc LIG
313 28 4 0.000000 6.953000 17.523001 19.900980 # Cc LIG
314 28 4 0.000000 19.961000 40.055000 19.900980 # Cc LIG
315 28 3 0.000000 7.192000 2.839000 20.804979 # Cb LIG
316 28 3 0.000000 20.201000 25.371000 20.804979 # Cb LIG
317 28 3 0.000000 7.192000 17.860001 18.527981 # Cb LIG
318 28 3 0.000000 20.201000 40.390999 18.527981 # Cb LIG
319 28 2 0.000000 7.361000 13.395000 22.137980 # Ca LIG
320 28 2 0.000000 20.370001 35.925999 22.137980 # Ca LIG
321 28 4 0.000000 7.366000 12.281000 17.624979 # Cc LIG
322 28 4 0.000000 20.374001 34.812000 17.624979 # Cc LIG
323 28 2 0.000000 7.919000 1.949000 19.861980 # Ca LIG
324 28 2 0.000000 20.927999 24.480000 19.861980 # Ca LIG
325 28 2 0.000000 7.919000 16.969999 17.585979 # Ca LIG
326 28 2 0.000000 20.927999 39.500999 17.585979 # Ca LIG
327 5 6 0.000000 25.764999 8.173000 21.715981 # H LIG
328 6 6 0.000000 12.756000 30.704000 21.715981 # H LIG
329 7 6 0.000000 20.212999 18.664000 21.715981 # H LIG
330 8 6 0.000000 7.204000 41.195999 21.715981 # H LIG
331 11 6 0.000000 19.961000 11.816000 21.532980 # H LIG
332 12 6 0.000000 6.952000 34.347000 21.532980 # H LIG
333 29 6 0.000000 18.813000 18.889000 23.808979 # H LIG
334 30 6 0.000000 5.805000 41.419998 23.808979 # H LIG
335 31 6 0.000000 0.252000 6.849000 23.808979 # H LIG
336 32 6 0.000000 13.261000 29.379999 23.808979 # H LIG
337 28 6 0.000000 0.252000 21.870001 21.532980 # H LIG
338 28 6 0.000000 13.261000 44.401001 21.532980 # H LIG
339 15 6 0.000000 12.756000 0.662000 19.439980 # H LIG
340 4 6 0.000000 25.764999 23.194000 19.439980 # H LIG
341 33 6 0.000000 12.756000 15.683000 17.163979 # H LIG
342 34 6 0.000000 25.764999 38.215000 17.163979 # H LIG
343 24 6 0.000000 13.261000 14.359000 19.255980 # H LIG
344 25 6 0.000000 0.252000 36.890999 19.255980 # H LIG
345 26 6 0.000000 18.813000 3.868000 19.256979 # H LIG
346 27 6 0.000000 5.804000 26.399000 19.256979 # H LIG
347 28 6 0.000000 19.065001 10.716000 19.439980 # H LIG
348 28 6 0.000000 6.057000 33.248001 19.439980 # H LIG
349 35 6 0.000000 20.212999 3.643000 17.163979 # H LIG
350 36 6 0.000000 7.204000 26.174000 17.163979 # H LIG
351 28 6 0.000000 5.804000 11.378000 21.532980 # H LIG
352 28 6 0.000000 18.813000 33.910000 21.532980 # H LIG
353 37 6 0.000000 6.057000 3.205000 17.163979 # H LIG
354 38 6 0.000000 19.065001 25.737000 17.163979 # H LIG
355 28 6 0.000000 6.057000 18.226999 21.715981 # H LIG
356 28 6 0.000000 19.066000 40.757999 21.715981 # H LIG
357 28 6 0.000000 6.952000 4.305000 19.256979 # H LIG
358 28 6 0.000000 19.959999 26.837000 19.256979 # H LIG
359 39 6 0.000000 6.951000 19.326000 23.808979 # H LIG
360 40 6 0.000000 19.959999 41.856998 23.808979 # H LIG
361 28 6 0.000000 7.204000 11.153000 19.439980 # H LIG
362 28 6 0.000000 20.212999 33.685001 19.439980 # H LIG
363 28 7 0.000000 22.488001 21.886000 19.548981 # Ni LIG
364 2 7 0.000000 9.479000 44.417999 19.548981 # Ni LIG
365 1 7 0.000000 20.719000 22.156000 21.825979 # Ni LIG
366 2 7 0.000000 7.710000 44.687000 21.825979 # Ni LIG
367 41 7 0.000000 8.828000 1.021000 17.272980 # Ni LIG
368 3 7 0.000000 21.837000 23.552999 17.272980 # Ni LIG
369 20 7 0.000000 16.538000 0.645000 21.423981 # Ni LIG
370 28 7 0.000000 3.529000 23.177000 21.423981 # Ni LIG
371 20 7 0.000000 18.306999 0.376000 19.147980 # Ni LIG
372 21 7 0.000000 5.299000 22.908001 19.147980 # Ni LIG
373 28 7 0.000000 4.181000 21.510000 23.699980 # Ni LIG
374 42 7 0.000000 17.188999 44.042000 23.699980 # Ni LIG
375 3 7 0.000000 22.488001 6.865000 21.824980 # Ni LIG
376 4 7 0.000000 9.479000 29.396999 21.824980 # Ni LIG
377 28 7 0.000000 21.837000 8.532000 19.548981 # Ni LIG
378 28 7 0.000000 8.828000 31.063000 19.548981 # Ni LIG
379 1 7 0.000000 20.718000 7.135000 17.272980 # Ni LIG
380 2 7 0.000000 7.710000 29.666000 17.272980 # Ni LIG
381 28 7 0.000000 3.529000 8.156000 23.699980 # Ni LIG
382 28 7 0.000000 16.538000 30.688000 23.699980 # Ni LIG
383 28 7 0.000000 4.180000 6.489000 19.147980 # Ni LIG
384 28 7 0.000000 17.188999 29.021000 19.147980 # Ni LIG
385 28 7 0.000000 5.299000 7.886000 21.423981 # Ni LIG
386 28 7 0.000000 18.306999 30.417999 21.423981 # Ni LIG
387 18 7 0.000000 7.710000 14.645000 19.548981 # Ni LIG
388 19 7 0.000000 20.719000 37.176998 19.548981 # Ni LIG
389 28 7 0.000000 8.828000 16.042000 21.824980 # Ni LIG
390 28 7 0.000000 21.837000 38.574001 21.824980 # Ni LIG
391 28 7 0.000000 9.479000 14.375000 17.272980 # Ni LIG
392 28 7 0.000000 22.488001 36.907001 17.272980 # Ni LIG
393 5 7 0.000000 18.306999 15.397000 23.699980 # Ni LIG
394 6 7 0.000000 5.299000 37.929001 23.699980 # Ni LIG
395 22 7 0.000000 16.538000 15.666000 19.146980 # Ni LIG
396 23 7 0.000000 3.529000 38.198002 19.146980 # Ni LIG
397 9 7 0.000000 17.188999 14.000000 21.423981 # Ni LIG
398 10 7 0.000000 4.180000 36.530998 21.423981 # Ni LIG
399 1 9 0.000000 23.941000 21.823999 0.459500 # Ob LIG
400 2 9 0.000000 10.932000 44.355999 0.459500 # Ob LIG
401 3 9 0.000000 23.941000 6.803000 2.735500 # Ob LIG
402 4 9 0.000000 10.932000 29.334000 2.735500 # Ob LIG
403 5 10 0.000000 23.514999 7.995000 0.005500 # Oc LIG
404 6 10 0.000000 10.506000 30.527000 0.005500 # Oc LIG
405 1 8 0.000000 22.554001 7.442000 24.851978 # Oa LIG
406 2 8 0.000000 9.546000 29.973000 24.851978 # Oa LIG
407 1 8 0.000000 22.554001 22.462999 2.089500 # Oa LIG
408 2 8 0.000000 9.546000 44.993999 2.089500 # Oa LIG
409 3 8 0.000000 21.304001 8.301000 2.089500 # Oa LIG
410 4 8 0.000000 8.295000 30.833000 2.089500 # Oa LIG
411 3 9 0.000000 21.164000 9.821000 0.459500 # Ob LIG
412 4 9 0.000000 8.155000 32.353001 0.459500 # Ob LIG
413 7 10 0.000000 21.184000 20.701000 0.005500 # Oc LIG
414 8 10 0.000000 8.176000 43.233002 0.005500 # Oc LIG
415 3 8 0.000000 21.184999 21.809999 24.851978 # Oa LIG
416 2 8 0.000000 8.176000 44.341000 24.851978 # Oa LIG
417 1 9 0.000000 19.938000 20.927999 2.735500 # Ob LIG
418 2 9 0.000000 6.930000 43.459999 2.735500 # Ob LIG
419 9 9 0.000000 19.087999 16.624001 1.816500 # Ob LIG
420 10 9 0.000000 6.079000 39.155998 1.816500 # Ob LIG
421 11 10 0.000000 18.681999 13.676000 2.270500 # Oc LIG
422 12 10 0.000000 5.673000 36.207001 2.270500 # Oc LIG
423 9 8 0.000000 17.841000 15.743000 0.186500 # Oa LIG
424 10 8 0.000000 4.833000 38.275002 0.186500 # Oa LIG
425 13 10 0.000000 17.841999 16.851000 25.033979 # Oc LIG
426 14 10 0.000000 4.833000 39.382999 25.033979 # Oc LIG
427 15 10 0.000000 10.506000 0.485000 25.043980 # Oc LIG
428 4 10 0.000000 23.514999 23.017000 25.043980 # Oc LIG
429 16 10 0.000000 10.506000 15.506000 2.281500 # Oc LIG
430 17 10 0.000000 23.514999 38.036999 2.281500 # Oc LIG
431 18 9 0.000000 10.932000 14.313000 25.497980 # Ob LIG
432 19 9 0.000000 23.941000 36.845001 25.497980 # Ob LIG
433 20 9 0.000000 15.085000 0.708000 26.855980 # Ob LIG
434 21 9 0.000000 2.076000 23.239000 26.855980 # Ob LIG
435 22 9 0.000000 15.085000 15.729000 24.579979 # Ob LIG
436 23 9 0.000000 2.077000 38.259998 24.579979 # Ob LIG
437 24 10 0.000000 15.511000 14.536000 27.309978 # Oc LIG
438 25 10 0.000000 2.503000 37.068001 27.309978 # Oc LIG
439 5 8 0.000000 16.471001 15.090000 2.462500 # Oa LIG
440 6 8 0.000000 3.463000 37.620998 2.462500 # Oa LIG
441 20 8 0.000000 16.471001 0.069000 25.225979 # Oa LIG
442 21 8 0.000000 3.463000 22.601000 25.225979 # Oa LIG
443 22 8 0.000000 17.722000 14.230000 25.225979 # Oa LIG
444 23 8 0.000000 4.713000 36.762001 25.225979 # Oa LIG
445 22 9 0.000000 17.862000 12.710000 26.855980 # Ob LIG
446 23 9 0.000000 4.853000 35.242001 26.855980 # Ob LIG
447 26 10 0.000000 17.841000 1.831000 27.309978 # Oc LIG
448 27 10 0.000000 4.833000 24.362000 27.309978 # Oc LIG
449 20 8 0.000000 17.841000 0.722000 2.462500 # Oa LIG
450 28 8 0.000000 4.833000 23.254000 2.462500 # Oa LIG
451 20 9 0.000000 19.087000 1.603000 24.579979 # Ob LIG
452 21 9 0.000000 6.079000 24.135000 24.579979 # Ob LIG
453 28 9 0.000000 19.938000 5.907000 25.497980 # Ob LIG
454 28 9 0.000000 6.930000 28.438999 25.497980 # Ob LIG
455 28 9 0.000000 2.076000 8.218000 1.816500 # Ob LIG
456 28 9 0.000000 15.085000 30.750000 1.816500 # Ob LIG
457 28 10 0.000000 2.503000 7.026000 25.033979 # Oc LIG
458 28 10 0.000000 15.511000 29.556999 25.033979 # Oc LIG
459 28 10 0.000000 2.503000 22.047001 2.270500 # Oc LIG
460 28 10 0.000000 15.511000 44.577999 2.270500 # Oc LIG
461 28 10 0.000000 20.344000 8.856000 25.044979 # Oc LIG
462 28 10 0.000000 7.336000 31.388000 25.044979 # Oc LIG
463 28 8 0.000000 21.184999 6.789000 27.128979 # Oa LIG
464 28 8 0.000000 8.176000 29.320000 27.128979 # Oa LIG
465 28 10 0.000000 21.184000 5.680000 2.281500 # Oc LIG
466 28 10 0.000000 8.176000 28.212000 2.281500 # Oc LIG
467 28 8 0.000000 3.463000 7.579000 0.186500 # Oa LIG
468 28 8 0.000000 16.471001 30.111000 0.186500 # Oa LIG
469 28 8 0.000000 4.713000 6.720000 2.462500 # Oa LIG
470 28 8 0.000000 17.722000 29.250999 2.462500 # Oa LIG
471 28 8 0.000000 4.713000 21.740999 0.186500 # Oa LIG
472 28 8 0.000000 17.722000 44.271999 0.186500 # Oa LIG
473 28 9 0.000000 4.853000 5.200000 24.579979 # Ob LIG
474 28 9 0.000000 17.862000 27.731001 24.579979 # Ob LIG
475 28 9 0.000000 4.853000 20.221001 1.816500 # Ob LIG
476 28 9 0.000000 17.862000 42.751999 1.816500 # Ob LIG
477 28 10 0.000000 4.833000 9.341000 2.270500 # Oc LIG
478 28 10 0.000000 17.841000 31.872999 2.270500 # Oc LIG
479 28 8 0.000000 4.833000 8.232000 25.225979 # Oa LIG
480 28 8 0.000000 17.841000 30.764000 25.225979 # Oa LIG
481 28 10 0.000000 5.673000 6.165000 27.309978 # Oc LIG
482 28 10 0.000000 18.681999 28.697001 27.309978 # Oc LIG
483 28 10 0.000000 5.673000 21.186001 25.033979 # Oc LIG
484 28 10 0.000000 18.681000 43.717999 25.033979 # Oc LIG
485 28 9 0.000000 6.079000 9.114000 26.855980 # Ob LIG
486 28 9 0.000000 19.087000 31.645000 26.855980 # Ob LIG
487 28 9 0.000000 6.930000 13.418000 0.459500 # Ob LIG
488 28 9 0.000000 19.938000 35.949001 0.459500 # Ob LIG
489 28 10 0.000000 7.336000 1.345000 2.281500 # Oc LIG
490 28 10 0.000000 20.344000 23.877001 2.281500 # Oc LIG
491 28 10 0.000000 7.336000 16.365999 0.005500 # Oc LIG
492 28 10 0.000000 20.344000 38.897999 0.005500 # Oc LIG
493 28 8 0.000000 8.176000 14.299000 2.089500 # Oa LIG
494 28 8 0.000000 21.184999 36.831001 2.089500 # Oa LIG
495 28 10 0.000000 8.176000 13.190000 25.043980 # Oc LIG
496 28 10 0.000000 21.184000 35.722000 25.043980 # Oc LIG
497 28 9 0.000000 8.155000 2.311000 25.497980 # Ob LIG
498 28 9 0.000000 21.164000 24.841999 25.497980 # Ob LIG
499 28 9 0.000000 8.155000 17.332001 2.735500 # Ob LIG
500 28 9 0.000000 21.164000 39.862999 2.735500 # Ob LIG
501 28 8 0.000000 8.296000 0.791000 27.128979 # Oa LIG
502 28 8 0.000000 21.304001 23.322001 27.128979 # Oa LIG
503 28 8 0.000000 8.295000 15.812000 24.851978 # Oa LIG
504 28 8 0.000000 21.304001 38.342999 24.851978 # Oa LIG
505 18 8 0.000000 9.546000 14.952000 27.128979 # Oa LIG
506 19 8 0.000000 22.554001 37.484001 27.128979 # Oa LIG
507 5 5 0.000000 25.868000 7.878000 0.186500 # Cd LIG
508 6 5 0.000000 12.860000 30.409000 0.186500 # Cd LIG
509 5 3 0.000000 24.879999 7.373000 25.356979 # Cb LIG
510 28 3 0.000000 11.871000 29.905001 25.356979 # Cb LIG
511 1 3 0.000000 24.879999 22.393999 2.594500 # Cb LIG
512 28 3 0.000000 11.871000 44.925999 2.594500 # Cb LIG
513 5 4 0.000000 24.708000 7.749000 26.729979 # Cc LIG
514 6 4 0.000000 11.699000 30.280001 26.729979 # Cc LIG
515 1 2 0.000000 23.745001 22.209999 1.651500 # Ca LIG
516 2 2 0.000000 10.736000 44.741001 1.651500 # Ca LIG
517 1 2 0.000000 23.745001 7.188000 24.414980 # Ca LIG
518 2 2 0.000000 10.736000 29.719999 24.414980 # Ca LIG
519 3 2 0.000000 20.927999 9.459000 1.651500 # Ca LIG
520 4 2 0.000000 7.919000 31.990999 1.651500 # Ca LIG
521 7 4 0.000000 20.374001 19.791000 26.729979 # Cc LIG
522 8 4 0.000000 7.365000 42.323002 26.729979 # Cc LIG
523 3 2 0.000000 20.370001 20.905001 24.414980 # Ca LIG
524 2 2 0.000000 7.361000 43.437000 24.414980 # Ca LIG
525 11 3 0.000000 20.201000 10.350000 2.594500 # Cb LIG
526 12 3 0.000000 7.192000 32.881001 2.594500 # Cb LIG
527 13 3 0.000000 19.962999 19.830000 25.356979 # Cb LIG
528 14 3 0.000000 6.954000 42.362000 25.356979 # Cb LIG
529 7 5 0.000000 19.905001 18.722000 0.186500 # Cd LIG