LAMMPS (30 Jul 2016)

# ----------------- Init Section -----------------

units real
processors 1 1 1
newton off
atom_style full
atom_modify sort 0 10.0

# ----------------- Atom Definition Section -----------------

read_data "MgMOF74-Pressure50000.data"
  orthogonal box = (0.4447 0.31425 -0.401771) to (26.5587 45.5442 27.2652)
  1 by 1 by 1 MPI processor grid
  reading atoms ...
  1307 atoms
  0 = max # of 1-2 neighbors
  0 = max # of 1-3 neighbors
  0 = max # of 1-4 neighbors
  1 = max # of special neighbors

# ----------------- Settings Section -----------------

#include "MgMOF74-Pressure50000.in.settings"

# ----------------- Run Section -----------------

# define groups
group GUEST type 1
11 atoms in group GUEST
group MOF type 2 3 4 5 6 7 8 9 10
1296 atoms in group MOF

# define computes
compute comT all com
compute comG GUEST com
compute comM MOF com

# settings
timestep           0.5
thermo             200
thermo_style       custom step temp epair emol etotal c_comT[1] c_comT[2] c_comT[3] c_comG[1] c_comG[2] c_comG[3] c_comM[1] c_comM[2] c_comM[3]
restart            2000000 sim.restart

# reset box to start at 0
change_box         all x delta $(-xlo) $(-xlo) y delta $(-ylo) $(-ylo) z delta $(-zlo) $(-zlo) remap units box
change_box         all x delta -0.44469999999999998419 $(-xlo) y delta $(-ylo) $(-ylo) z delta $(-zlo) $(-zlo) remap units box
change_box         all x delta -0.44469999999999998419 -0.44469999999999998419 y delta $(-ylo) $(-ylo) z delta $(-zlo) $(-zlo) remap units box
change_box         all x delta -0.44469999999999998419 -0.44469999999999998419 y delta -0.3142499999999999738 $(-ylo) z delta $(-zlo) $(-zlo) remap units box
change_box         all x delta -0.44469999999999998419 -0.44469999999999998419 y delta -0.3142499999999999738 -0.3142499999999999738 z delta $(-zlo) $(-zlo) remap units box
change_box         all x delta -0.44469999999999998419 -0.44469999999999998419 y delta -0.3142499999999999738 -0.3142499999999999738 z delta 0.40177099999999998925 $(-zlo) remap units box
change_box         all x delta -0.44469999999999998419 -0.44469999999999998419 y delta -0.3142499999999999738 -0.3142499999999999738 z delta 0.40177099999999998925 0.40177099999999998925 remap units box
  orthogonal box = (0 0.31425 -0.401771) to (26.114 45.5442 27.2652)
  orthogonal box = (0 0 -0.401771) to (26.114 45.23 27.2652)
  orthogonal box = (0 0 0) to (26.114 45.23 27.667)
write_data         data_changebox.data

# get rid of overlapping atoms
run                0
WARNING: No fixes defined, atoms won't move (../verlet.cpp:55)
Memory usage per processor = 0.478851 Mbytes
Step Temp E_pair E_mol TotEng comT[1] comT[2] comT[3] comG[1] comG[2] comG[3] comM[1] comM[2] comM[3] 
       0            0            0            0            0    12.683318    22.424053    14.189073    19.734246    34.636249    9.6241346    12.612127     22.30075    14.235163 
Loop time of 9.53674e-07 on 1 procs for 0 steps with 1307 atoms

0.0% CPU use with 1 MPI tasks x no OpenMP threads

MPI task timing breakdown:
Section |  min time  |  avg time  |  max time  |%varavg| %total
---------------------------------------------------------------
Pair    | 0          | 0          | 0          |   0.0 |  0.00
Bond    | 0          | 0          | 0          |   0.0 |  0.00
Neigh   | 0          | 0          | 0          |   0.0 |  0.00
Comm    | 0          | 0          | 0          |   0.0 |  0.00
Output  | 0          | 0          | 0          |   0.0 |  0.00
Modify  | 0          | 0          | 0          |   0.0 |  0.00
Other   |            | 9.537e-07  |            |       |100.00

Nlocal:    1307 ave 1307 max 1307 min
Histogram: 1 0 0 0 0 0 0 0 0 0
Nghost:    0 ave 0 max 0 min
Histogram: 1 0 0 0 0 0 0 0 0 0
Neighs:    0 ave 0 max 0 min
Histogram: 1 0 0 0 0 0 0 0 0 0

Total # of neighbors = 0
Ave neighs/atom = 0
Ave special neighs/atom = 0
Neighbor list builds = 0
Dangerous builds = 0
velocity           GUEST create 313 1738
fix                1 GUEST nvt temp 313 313 100.0
pair_style         soft 5.0
pair_coeff         * * 0.0 5.0
kspace_style       none
variable           prefactor equal ramp(1.0,20.0)
fix                2 all adapt 1 pair soft a * * v_prefactor
run                20000
Neighbor list info ...
  1 neighbor list requests
  update every 1 steps, delay 10 steps, check yes
  max neighbors/atom: 2000, page size: 100000
  master list distance cutoff = 7
  ghost atom cutoff = 7
  binsize = 3.5 -> bins = 8 13 8
Memory usage per processor = 5.44173 Mbytes
Step Temp E_pair E_mol TotEng comT[1] comT[2] comT[3] comG[1] comG[2] comG[3] comM[1] comM[2] comM[3] 
       0    2.3966309    8995.3087            0    9004.6386    12.683318    22.424053    14.189073    19.734246    34.636249    9.6241346    12.612127     22.30075    14.235163 
     200     3.115513    10700.746            0    10712.875    12.683325    22.423926    14.189079    19.734991    34.623493    9.6248279    12.612127     22.30075    14.235163 
     400    5.1716527    12386.628            0    12406.761    12.683386    22.423051    14.189079    19.741023    34.536013    9.6248336    12.612127     22.30075    14.235163 
     600    7.1669154    14046.144            0    14074.045    12.683511    22.421496    14.188919    19.753603    34.380457    9.6088083    12.612127     22.30075    14.235163 
     800    5.1914891    15718.335            0    15738.545    12.683594    22.420429    14.188755    19.761829    34.273714    9.5923479    12.612127     22.30075    14.235163 
    1000    6.1329528    17372.485            0     17396.36    12.683553    22.418598    14.188653    19.757786    34.090539    9.5821737    12.612127     22.30075    14.235163 
    1200    2.6025349    19050.499            0    19060.631    12.683539    22.416142    14.188346    19.756359    33.844817    9.5514257    12.612127     22.30075    14.235163 
    1400    1.2484057    20741.625            0    20746.485    12.683562    22.414506    14.188086    19.758683    33.681114    9.5254761    12.612127     22.30075    14.235163 
    1600    1.4997877    22433.002            0    22438.841    12.683583    22.413097    14.187862    19.760725    33.540202    9.5030431    12.612127     22.30075    14.235163 
    1800    3.1001037    24124.379            0    24136.448     12.68361    22.411242    14.187567    19.763414    33.354644    9.4735024    12.612127     22.30075    14.235163 
    2000    3.4283775    25815.816            0    25829.162    12.683644    22.408877     14.18719    19.766845    33.118026    9.4358142    12.612127     22.30075    14.235163 
    2200   0.69651235    27514.257            0    27516.968    12.683705    22.407475    14.186711    19.772994     32.97774    9.3879278    12.612127     22.30075    14.235163 
    2400    3.1357605    29199.923            0     29212.13    12.683853    22.409249    14.185648    19.787783    33.155228    9.2815353    12.612127     22.30075    14.235163 
    2600    3.1444568    30893.055            0    30905.296    12.684034    22.412117    14.184241    19.805831    33.442122    9.1407569    12.612127     22.30075    14.235163 
    2800    2.3796416     32582.51            0    32591.774    12.684167    22.413952    14.183139    19.819183    33.625689    9.0305161    12.612127     22.30075    14.235163 
    3000    1.8436424    34272.643            0     34279.82    12.684259     22.41526    14.182311    19.828404    33.756548     8.947736    12.612127     22.30075    14.235163 
    3200    1.7172896    35964.729            0    35971.414     12.68431    22.416422    14.181576    19.833522    33.872773    8.8741901    12.612127     22.30075    14.235163 
    3400    1.8870157    37659.385            0    37666.731    12.683933    22.416982    14.180951    19.795789    33.928832    8.8116227    12.612127     22.30075    14.235163 
    3600    3.7785162    39347.594            0    39362.304    12.682389    22.415883    14.180633    19.641345    33.818898    8.7797959    12.612127     22.30075    14.235163 
    3800    2.2218158    41039.455            0    41048.105     12.68059    22.414236    14.180411    19.461333    33.654155    8.7575908    12.612127     22.30075    14.235163 
    4000    1.9467878    42729.869            0    42737.448    12.679701    22.412904    14.180269    19.372357    33.520834    8.7434148    12.612127     22.30075    14.235163 
    4200    2.2200152    44421.388            0    44430.031    12.679169    22.411621    14.180131    19.319131    33.392515     8.729626    12.612127     22.30075    14.235163 
    4400    3.3516208    46113.365            0    46126.413    12.678654     22.41052    14.179941     19.26768    33.282388    8.7105793    12.612127     22.30075    14.235163 
    4600    3.0897515    47804.354            0    47816.382    12.678213    22.409789    14.179694    19.223496     33.20927    8.6859243    12.612127     22.30075    14.235163 
    4800    1.3539565    49497.678            0    49502.949    12.678478    22.409345    14.179566    19.250011    33.164791      8.67309    12.612127     22.30075    14.235163 
    5000    1.8803889    51188.936            0    51196.256    12.679927    22.409523    14.179865    19.395006    33.182609    8.7029871    12.612127     22.30075    14.235163 
    5200    2.7921241    52880.651            0     52891.52    12.681875    22.411101    14.180434    19.589898    33.340495    8.7599583    12.612127     22.30075    14.235163 
    5400    2.6133899    54573.711            0    54583.885    12.683821     22.41384    14.181061    19.784551    33.614547    8.8226179    12.612127     22.30075    14.235163 
    5600    2.4919535    56262.247            0    56271.948    12.684684    22.415692    14.181979    19.870859    33.799829    8.9144748    12.612127     22.30075    14.235163 
    5800    0.7280238    57957.509            0    57960.343    12.684759    22.416625    14.182759    19.878452    33.893117    8.9924821    12.612127     22.30075    14.235163 
    6000    2.4493004    59644.574            0    59654.109     12.68407    22.416212    14.183566    19.809436    33.851771    9.0732865    12.612127     22.30075    14.235163 
    6200     2.780745    61334.952            0    61345.778     12.68282    22.415363    14.184424    19.684387     33.76691    9.1590949    12.612127     22.30075    14.235163 
    6400    2.0589793    63027.042            0    63035.058    12.681559    22.414978    14.185085     19.55827    33.728371    9.2252022    12.612127     22.30075    14.235163 
    6600    2.0787063    64717.709            0    64725.802    12.680413    22.414761    14.185655    19.443654    33.706597    9.2821959    12.612127     22.30075    14.235163 
    6800    2.5291789     66409.95            0    66419.796    12.679186    22.415009    14.186394    19.320917    33.731483     9.356129    12.612127     22.30075    14.235163 
    7000    3.6931744    68101.404            0    68115.781     12.67774    22.415816    14.187597    19.176205    33.812236    9.4765503    12.612127     22.30075    14.235163 
    7200    2.2900592    69792.206            0    69801.121    12.676553    22.416276    14.188917    19.057504    33.858165    9.6085295    12.612127     22.30075    14.235163 
    7400    1.9425344    71483.248            0    71490.811    12.676081    22.416189    14.189876    19.010208    33.849518    9.7044692    12.612127     22.30075    14.235163 
    7600    2.1023058    73175.502            0    73183.686    12.676237       22.416    14.190726    19.025809    33.830614    9.7895098    12.612127     22.30075    14.235163 
    7800    3.0451049    74866.327            0    74878.182    12.677565    22.415769    14.191596    19.158755    33.807495    9.8765974    12.612127     22.30075    14.235163 
    8000    2.5502869     76558.13            0    76568.058    12.679674    22.415588    14.192462    19.369657    33.789395    9.9632007    12.612127     22.30075    14.235163 
    8200    1.4416783    78249.142            0    78254.754    12.681334    22.415507    14.193137     19.53581    33.781233    10.030728    12.612127     22.30075    14.235163 
    8400    1.4284835    79940.976            0    79946.537    12.682727    22.415424    14.193699    19.675167    33.772935    10.086992    12.612127     22.30075    14.235163 
    8600    1.8121856     81632.99            0    81640.045    12.683401    22.415376    14.194429    19.742574    33.768127    10.160002    12.612127     22.30075    14.235163 
    8800     2.729926    83323.603            0     83334.23    12.683147    22.414863    14.195559    19.717144    33.716841    10.273047    12.612127     22.30075    14.235163 
    9000     2.804603    85014.508            0    85025.427    12.682879     22.41443    14.196753    19.690298    33.673483    10.392537    12.612127     22.30075    14.235163 
    9200    1.7112431    86706.807            0    86713.469    12.682692    22.414551    14.197793    19.671575    33.685677    10.496564    12.612127     22.30075    14.235163 
    9400    1.6593569     88398.44            0      88404.9    12.683187      22.4151    14.198683    19.721175    33.740556    10.585566    12.612127     22.30075    14.235163 
    9600     3.590271    90088.626            0    90102.603    12.684309    22.415993    14.200022    19.833401    33.829879    10.719579    12.612127     22.30075    14.235163 
    9800    2.9152035    91779.688            0    91791.037    12.685109    22.416698    14.201693    19.913394    33.900464    10.886736    12.612127     22.30075    14.235163 
   10000    2.2127589    93470.842            0    93479.456    12.685592    22.417142    14.203225    19.961785    33.944845    11.040027    12.612127     22.30075    14.235163 
   10200    1.5462968    95164.493            0    95170.512    12.685968      22.4175    14.204632    19.999328    33.980673    11.180704    12.612127     22.30075    14.235163 
   10400    3.2400872    96853.688            0    96866.302    12.684704    22.416903    14.205837    19.872905    33.920888     11.30124    12.612127     22.30075    14.235163 
   10600    2.8075986    98546.459            0    98557.388    12.682487    22.415671       14.207     19.65116    33.797702      11.4176    12.612127     22.30075    14.235163 
   10800     2.040302    100239.61            0    100247.55     12.68058    22.414485      14.2079    19.460368    33.679041    11.507642    12.612127     22.30075    14.235163 
   11000    2.7593316    101929.13            0    101939.87    12.679878    22.412462    14.208385    19.390076    33.476682    11.556178    12.612127     22.30075    14.235163 
   11200    2.5467686    103621.52            0    103631.44    12.679892    22.410025    14.208674    19.391496    33.232795    11.585095    12.612127     22.30075    14.235163 
   11400    2.3858795    105311.76            0    105321.05    12.680351    22.408231    14.208691    19.437425    33.053404    11.586799    12.612127     22.30075    14.235163 
   11600    1.9213623    107001.86            0    107009.34     12.68095    22.407801    14.208392    19.497374     33.01032    11.556882    12.612127     22.30075    14.235163 
   11800     1.838173    108693.24            0    108700.39    12.681481    22.407707    14.208043    19.550466    33.000948    11.521956    12.612127     22.30075    14.235163 
   12000    2.4297344    110386.92            0    110396.38    12.682005     22.40766    14.207672    19.602886    32.996235    11.484873    12.612127     22.30075    14.235163 
   12200    3.6851765    112076.78            0    112091.12    12.681577    22.408872    14.207508    19.560101    33.117531     11.46843    12.612127     22.30075    14.235163 
   12400    2.3369771    113769.06            0    113778.16    12.680917    22.410742    14.207445    19.494078    33.304555    11.462174    12.612127     22.30075    14.235163 
   12600     1.887823    115461.55            0    115468.89    12.679594    22.412087    14.207733    19.361681     33.43909    11.490945    12.612127     22.30075    14.235163 
   12800    2.5112397    117152.74            0    117162.51    12.677569    22.412109    14.208395    19.159064    33.441338    11.557162    12.612127     22.30075    14.235163 
   13000    3.1134244    118843.15            0    118855.27    12.675339    22.411861    14.209203    18.935968    33.416543    11.638068    12.612127     22.30075    14.235163 
   13200    1.3492738    120535.39            0    120540.64    12.674678    22.412405    14.210329    18.869852    33.470972    11.750655    12.612127     22.30075    14.235163 
   13400     1.756551    122224.75            0    122231.59    12.675688    22.413205    14.211207    18.970956    33.550962    11.838481    12.612127     22.30075    14.235163 
   13600     2.297891    123916.84            0    123925.78     12.67715    22.413806    14.212117    19.117188    33.611083     11.92956    12.612127     22.30075    14.235163 
   13800    2.0253278    125611.33            0    125619.22    12.678886    22.414417    14.213199    19.290818    33.672253    12.037783    12.612127     22.30075    14.235163 
   14000    3.3261817       127300            0    127312.95    12.679392    22.415992    14.213805    19.341498    33.829823    12.098389    12.612127     22.30075    14.235163 
   14200    2.1938724    128994.03            0    129002.57    12.678695    22.418221     14.21411    19.271762    34.052774    12.128969    12.612127     22.30075    14.235163 
   14400    2.6554507    130682.29            0    130692.63    12.678519     22.41897    14.214488    19.254113    34.127703    12.166788    12.612127     22.30075    14.235163 
   14600    2.7619465     132372.6            0    132383.35    12.679342     22.41814    14.214482    19.336503    34.044683    12.166108    12.612127     22.30075    14.235163 
   14800    2.1528839    134063.89            0    134072.27    12.680686    22.416601    14.214164    19.470909     33.89069    12.134357    12.612127     22.30075    14.235163 
   15000    1.0953371    135755.32            0    135759.58    12.681721    22.415414    14.213919    19.574519    33.772007    12.109828    12.612127     22.30075    14.235163 
   15200    1.3843316    137446.84            0    137452.23    12.682855    22.414195    14.213635    19.687909    33.649987    12.081394    12.612127     22.30075    14.235163 
   15400    2.2353544    139138.09            0    139146.79    12.684686    22.412329    14.213156    19.871125    33.463356    12.033471    12.612127     22.30075    14.235163 
   15600    1.7385653    140833.61            0    140840.38    12.686357    22.410361    14.212457    20.038225     33.26642     11.96356    12.612127     22.30075    14.235163 
   15800    3.3748585     142522.6            0    142535.74     12.68604    22.409564    14.210997    20.006522    33.186697    11.817513    12.612127     22.30075    14.235163 
   16000     2.745482    144212.16            0    144222.84    12.683922    22.410014     14.20955    19.794679    33.231731    11.672756    12.612127     22.30075    14.235163 
   16200    1.9307698    145903.67            0    145911.18    12.682145    22.410422    14.208393    19.616862     33.27256    11.556968    12.612127     22.30075    14.235163 
   16400    2.0382586    147595.78            0    147603.72      12.6805    22.410902    14.207104    19.452342    33.320567    11.428048    12.612127     22.30075    14.235163 
   16600    2.6381463     149287.9            0    149298.17    12.679047    22.411428    14.205132    19.306919    33.373191    11.230807    12.612127     22.30075    14.235163 
   16800    2.6286903    150979.83            0    150990.06    12.678389    22.412238    14.202899    19.241132    33.454267    11.007411    12.612127     22.30075    14.235163 
   17000    2.6860389    152669.06            0    152679.52    12.678979    22.412891    14.200873    19.300137    33.519592    10.804691    12.612127     22.30075    14.235163 
   17200    1.4657427    154360.47            0    154366.17    12.679895    22.413166    14.199163    19.391791    33.547067    10.633594    12.612127     22.30075    14.235163 
   17400   0.75696666    156052.34            0    156055.29    12.680427    22.413179    14.198073    19.445037    33.548403    10.524593    12.612127     22.30075    14.235163 
   17600    1.5048433    157743.21            0    157749.07       12.681    22.413186    14.196905    19.502303    33.549041    10.407667    12.612127     22.30075    14.235163 
   17800    2.3138733     159435.4            0    159444.41    12.681947    22.413271    14.195318    19.597058    33.557612    10.248958    12.612127     22.30075    14.235163 
   18000    3.3885606    161126.03            0    161139.22    12.682689     22.41274    14.193097    19.671332    33.504416    10.026734    12.612127     22.30075    14.235163 
   18200      2.84881    162818.68            0    162829.78    12.682037    22.412147    14.190791    19.606117    33.445125    9.7960707    12.612127     22.30075    14.235163 
   18400    1.9718462    164508.73            0     164516.4    12.680228    22.412702    14.189217    19.425106    33.500645    9.6386334    12.612127     22.30075    14.235163 
   18600    1.5854805    166200.07            0    166206.24    12.678778    22.413301    14.187963    19.280011    33.560562    9.5131825    12.612127     22.30075    14.235163 
   18800    2.2337221    167891.45            0    167900.15    12.677322    22.413897    14.186653    19.134421    33.620229    9.3821168    12.612127     22.30075    14.235163 
   19000    2.6000071    169582.87            0    169592.99    12.675781    22.414654    14.185109    18.980279    33.695944    9.2275847    12.612127     22.30075    14.235163 
   19200    1.6393916    171277.98            0    171284.36    12.674545     22.41507    14.183671    18.856567    33.737602     9.083772    12.612127     22.30075    14.235163 
   19400    3.3046942    172965.85            0    172978.72     12.67548    22.414383    14.183031     18.95011     33.66883    9.0197351    12.612127     22.30075    14.235163 
   19600    2.2888761    174659.09            0       174668    12.676951    22.413294    14.182633    19.097288    33.559868    8.9798999    12.612127     22.30075    14.235163 
   19800    1.1882582    176350.38            0    176355.01    12.677903    22.412442    14.182288    19.192564    33.474673    8.9453809    12.612127     22.30075    14.235163 
   20000    1.7548195     178040.5            0    178047.33    12.677413    22.411934    14.181707    19.143522     33.42387    8.8872727    12.612127     22.30075    14.235163 
Loop time of 27.6721 on 1 procs for 20000 steps with 1307 atoms

Performance: 31.223 ns/day, 0.769 hours/ns, 722.750 timesteps/s
100.0% CPU use with 1 MPI tasks x no OpenMP threads

MPI task timing breakdown:
Section |  min time  |  avg time  |  max time  |%varavg| %total
---------------------------------------------------------------
Pair    | 26.911     | 26.911     | 26.911     |  -nan | 97.25
Bond    | 0.0014374  | 0.0014374  | 0.0014374  |   0.0 |  0.01
Neigh   | 0.41107    | 0.41107    | 0.41107    |   0.0 |  1.49
Comm    | 0.11487    | 0.11487    | 0.11487    |   0.0 |  0.42
Output  | 0.004776   | 0.004776   | 0.004776   |   0.0 |  0.02
Modify  | 0.14833    | 0.14833    | 0.14833    |   0.0 |  0.54
Other   |            | 0.0803     |            |       |  0.29

Nlocal:    1307 ave 1307 max 1307 min
Histogram: 1 0 0 0 0 0 0 0 0 0
Nghost:    2721 ave 2721 max 2721 min
Histogram: 1 0 0 0 0 0 0 0 0 0
Neighs:    53261 ave 53261 max 53261 min
Histogram: 1 0 0 0 0 0 0 0 0 0

Total # of neighbors = 53261
Ave neighs/atom = 40.7506
Ave special neighs/atom = 0
Neighbor list builds = 141
Dangerous builds = 0
unfix              2
write_data         data_overlap.data

# reset force field parameters
# Set 1-2, 1-3, and 1-4 pairwise interactions to zero; not needed if no bonded terms
#special_bonds      lj/coul 0.0 0.0 0.0
kspace_style       pppm/disp 1.0e-6
neigh_modify       delay 0 every 1 check yes
include "MgMOF74-Pressure50000.in.settings"
# UFF parameters for all atoms not defined by force field
pair_style         hybrid lj/long/coul/long cut long 12.8 buck/long/coul/long cut long 12.8
pair_modify        mix arithmetic shift yes
pair_coeff         7 7 lj/long/coul/long 0.111 2.691
pair_coeff         2 2 lj/long/coul/long 0.105 3.431
pair_coeff         3 3 lj/long/coul/long 0.105 3.431
pair_coeff         4 4 lj/long/coul/long 0.105 3.431
pair_coeff         5 5 lj/long/coul/long 0.105 3.431
pair_coeff         6 6 lj/long/coul/long 0.044 2.571
pair_coeff         8 8 lj/long/coul/long 0.060 3.118
pair_coeff         9 9 lj/long/coul/long 0.060 3.118
pair_coeff         10 10 lj/long/coul/long 0.060 3.118
pair_coeff         1 1 lj/long/coul/long 0.294 3.730
# Lennard-Jones parameters from force field
pair_coeff         1 6 lj/long/coul/long 0.114 3.15
# Buckingham parameters from force field
pair_coeff         1 7 buck/long/coul/long 503735.46 4.915 869.75957
pair_coeff         1 8 buck/long/coul/long 36618.413 2.965 943.43844
pair_coeff         1 9 buck/long/coul/long 40336.705 3.265 943.43844
pair_coeff         1 10 buck/long/coul/long 20010.424 2.790 943.43844
pair_coeff         1 2 buck/long/coul/long 151480.54 3.995 1627.7890
pair_coeff         1 3 buck/long/coul/long 70571.228 3.280 1627.7890
pair_coeff         1 4 buck/long/coul/long 460219.42 4.370 1627.7890
pair_coeff         1 5 buck/long/coul/long 5085.8640 2.315 1627.7890

# melt crystalline guest molecules
unfix              1
run                0
WARNING: No fixes defined, atoms won't move (../verlet.cpp:55)
PPPMDisp initialization ...
  Coulomb G vector (1/distance) = 0.264777
  Coulomb grid = 30 50 30
  Coulomb stencil order = 5
  Coulomb estimated absolute RMS force accuracy = 0.000346238
  Coulomb estimated relative force accuracy = 1.04269e-06
  using double precision FFTs
  3d grid and FFT values/proc = 78033 45000
Neighbor list info ...
  3 neighbor list requests
  update every 1 steps, delay 0 steps, check yes
  max neighbors/atom: 2000, page size: 100000
  master list distance cutoff = 14.8
  ghost atom cutoff = 14.8
  binsize = 7.4 -> bins = 4 7 4
Memory usage per processor = 12.3698 Mbytes
Step Temp E_pair E_mol TotEng comT[1] comT[2] comT[3] comG[1] comG[2] comG[3] comM[1] comM[2] comM[3] 
   20000    1.7548195     61116192            0     61116199    12.677413    22.411934    14.181707    19.143522     33.42387    8.8872727    12.612127     22.30075    14.235163 
Loop time of 1.09673e-05 on 1 procs for 0 steps with 1307 atoms

0.0% CPU use with 1 MPI tasks x no OpenMP threads

MPI task timing breakdown:
Section |  min time  |  avg time  |  max time  |%varavg| %total
---------------------------------------------------------------
Pair    | 0          | 0          | 0          |   0.0 |  0.00
Bond    | 0          | 0          | 0          |   0.0 |  0.00
Kspace  | 0          | 0          | 0          |   0.0 |  0.00
Neigh   | 0          | 0          | 0          |   0.0 |  0.00
Comm    | 0          | 0          | 0          |   0.0 |  0.00
Output  | 0          | 0          | 0          |   0.0 |  0.00
Modify  | 0          | 0          | 0          |   0.0 |  0.00
Other   |            | 1.097e-05  |            |       |100.00

Nlocal:    1307 ave 1307 max 1307 min
Histogram: 1 0 0 0 0 0 0 0 0 0
Nghost:    7919 ave 7919 max 7919 min
Histogram: 1 0 0 0 0 0 0 0 0 0
Neighs:    490887 ave 490887 max 490887 min
Histogram: 1 0 0 0 0 0 0 0 0 0

Total # of neighbors = 490887
Ave neighs/atom = 375.583
Ave special neighs/atom = 0
Neighbor list builds = 0
Dangerous builds = 0
velocity           GUEST create 1000 1738
fix                3 GUEST nvt temp 1000 1000 100.0
run                40000
PPPMDisp initialization ...
  Coulomb G vector (1/distance) = 0.264777
  Coulomb grid = 30 50 30
  Coulomb stencil order = 5
  Coulomb estimated absolute RMS force accuracy = 0.000346238
  Coulomb estimated relative force accuracy = 1.04269e-06
  using double precision FFTs
  3d grid and FFT values/proc = 78033 45000
Memory usage per processor = 12.3698 Mbytes
Step Temp E_pair E_mol TotEng comT[1] comT[2] comT[3] comG[1] comG[2] comG[3] comM[1] comM[2] comM[3] 
   20000    7.6569678     61116192            0     61116222    12.677413    22.411934    14.181707    19.143522     33.42387    8.8872727    12.612127     22.30075    14.235163 
   20200    1111.5107     59214314            0     59218641    12.683224    22.410247     14.17876    19.724797    33.255063    8.5924363    12.612127     22.30075    14.235163 
   20400    406.64072     59214861            0     59216444    12.683168     22.41019    14.179136    19.719261    33.249383    8.6300437    12.612127     22.30075    14.235163 
   20600    523.46414     59215891            0     59217929    12.683444    22.410507    14.178304    19.746825    33.281041     8.546847    12.612127     22.30075    14.235163 
   20800    731.09105     59212791            0     59215637    12.683287    22.410368     14.17914    19.731183    33.267129    8.6304176    12.612127     22.30075    14.235163 
   21000    500.74102     59215305            0     59217255    12.683409    22.410323    14.178919    19.743325    33.262668    8.6083361    12.612127     22.30075    14.235163 
   21200    640.20184     59215186            0     59217678    12.683281    22.410461    14.179017    19.730545    33.276441    8.6181746    12.612127     22.30075    14.235163 
   21400    467.73046     59214900            0     59216721    12.683178     22.41023    14.178664    19.720248    33.253341    8.5828046    12.612127     22.30075    14.235163 
   21600    499.64407     59214471            0     59216416    12.683074    22.410354    14.178862    19.709793    33.265745    8.6026078    12.612127     22.30075    14.235163 
   21800    481.99968     59214199            0     59216075    12.683413    22.410356    14.178906    19.743737    33.265923    8.6070809    12.612127     22.30075    14.235163 
   22000    684.24919     59213299            0     59215963    12.683275    22.410476    14.178826    19.729929    33.277955    8.5990804    12.612127     22.30075    14.235163 
   22200    750.13238     59212296            0     59215216    12.683175    22.410371    14.178792    19.719922    33.267432    8.5956798    12.612127     22.30075    14.235163 
   22400     539.1129     59215296            0     59217395    12.683363     22.41039    14.178415    19.738717    33.269347    8.5579278    12.612127     22.30075    14.235163 
   22600     479.4752     59214428            0     59216295     12.68343    22.410365    14.178494    19.745431    33.266864    8.5658653    12.612127     22.30075    14.235163 
   22800    691.19974     59214245            0     59216936    12.683235    22.410438    14.178667    19.725929    33.274204    8.5831923    12.612127     22.30075    14.235163 
   23000    484.24856     59213638            0     59215523    12.683293    22.410352    14.178993    19.731716    33.265592    8.6157927    12.612127     22.30075    14.235163 
   23200    444.11628     59214573            0     59216302    12.683119    22.410543    14.179495    19.714382    33.284628    8.6660291    12.612127     22.30075    14.235163 
   23400    606.44299     59214450            0     59216811    12.683377    22.410372    14.178944    19.740115    33.267518     8.610861    12.612127     22.30075    14.235163 
   23600    451.90288     59214512            0     59216271    12.683347    22.410374    14.178501    19.737118    33.267807    8.5665502    12.612127     22.30075    14.235163 
   23800      617.923     59213176            0     59215582    12.683311    22.410356    14.178976    19.733522    33.265922    8.6140478    12.612127     22.30075    14.235163 
   24000    281.14144     59212019            0     59213113    12.683352    22.410489    14.178773    19.737655     33.27928    8.5937139    12.612127     22.30075    14.235163 
   24200    582.88933     59212916            0     59215185    12.683281    22.410353    14.178807    19.730567    33.265689     8.597161    12.612127     22.30075    14.235163 
   24400     679.5706     59213280            0     59215926    12.683452     22.41048     14.17909    19.747666    33.278407    8.6255114    12.612127     22.30075    14.235163 
   24600    419.67044     59214154            0     59215787    12.683296    22.410326    14.179186    19.731997    33.262939    8.6350417    12.612127     22.30075    14.235163 
   24800    375.10642     59215617            0     59217077      12.6833    22.410339    14.178117    19.732483    33.264287     8.528153    12.612127     22.30075    14.235163 
   25000    411.75306     59213959            0     59215561    12.683278    22.410416    14.179444    19.730257     33.27201    8.6608711    12.612127     22.30075    14.235163 
   25200    527.88414     59211654            0     59213709    12.683303    22.410266    14.178925    19.732766    33.256924    8.6090035    12.612127     22.30075    14.235163 
   25400    461.60588     59215071            0     59216868    12.683404    22.410382    14.178666    19.742804    33.268553    8.5830162    12.612127     22.30075    14.235163 
   25600    432.34701     59213542            0     59215225    12.683441    22.410474    14.178968    19.746589      33.2778    8.6132365    12.612127     22.30075    14.235163 
   25800    399.70488     59212965            0     59214521    12.683281    22.410481    14.179023    19.730539    33.278441    8.6187654    12.612127     22.30075    14.235163 
   26000    557.36047     59213609            0     59215779    12.683271    22.410129     14.17892    19.729521     33.24324    8.6084174    12.612127     22.30075    14.235163 
   26200    224.95984     59213490            0     59214366    12.683076    22.410427    14.178941    19.709988    33.273097    8.6105893    12.612127     22.30075    14.235163 
   26400    586.35182     59213075            0     59215357    12.683205    22.410351    14.179065    19.722897    33.265487    8.6229552    12.612127     22.30075    14.235163 
   26600    416.91446     59214365            0     59215988    12.683312    22.410344    14.179001     19.73364    33.264714    8.6165744    12.612127     22.30075    14.235163 
   26800    473.05756     59212620            0     59214462    12.683257    22.410296    14.178699    19.728109    33.259994    8.5863177    12.612127     22.30075    14.235163 
   27000    760.29308     59214810            0     59217770    12.683399    22.410355    14.179165    19.742364    33.265874    8.6329798    12.612127     22.30075    14.235163 
   27200    458.06966     59214098            0     59215882    12.683349    22.410206    14.179137    19.737325    33.250965    8.6301745    12.612127     22.30075    14.235163 
   27400    529.94876     59213268            0     59215331    12.683228    22.410283    14.178851     19.72528     33.25862     8.601524    12.612127     22.30075    14.235163 
   27600    597.54512     59213586            0     59215912    12.683285    22.410358    14.179572    19.730962    33.266176    8.6737248    12.612127     22.30075    14.235163 
   27800    896.32977     59213624            0     59217113    12.683436    22.410359    14.179295    19.746066    33.266244    8.6460056    12.612127     22.30075    14.235163 
   28000    638.82038     59211641            0     59214128    12.683269    22.410407    14.178872    19.729386    33.271104     8.603681    12.612127     22.30075    14.235163 
   28200    653.82814     59212871            0     59215416    12.683526    22.410339    14.179025    19.755053    33.264239    8.6189678    12.612127     22.30075    14.235163 
   28400    678.81253     59213971            0     59216614    12.683398    22.410347    14.178906    19.742255    33.265062     8.607034    12.612127     22.30075    14.235163 
   28600    469.11347     59211701            0     59213527    12.683212    22.410255    14.178928    19.723684    33.255822    8.6092267    12.612127     22.30075    14.235163 
   28800     452.1284     59214191            0     59215951    12.683384    22.410454    14.179133    19.740835    33.275764    8.6297335    12.612127     22.30075    14.235163 
   29000    458.01287     59212116            0     59213899     12.68339    22.410363    14.178984    19.741485    33.266631    8.6148363    12.612127     22.30075    14.235163 
   29200    482.74297     59213639            0     59215518    12.683262     22.41026    14.179084    19.728658     33.25635    8.6248213    12.612127     22.30075    14.235163 
   29400    271.19482     59214882            0     59215938    12.683226    22.410456    14.178204    19.725088    33.275984    8.5368444    12.612127     22.30075    14.235163 
   29600    391.60616     59213928            0     59215452    12.683439    22.410431    14.179095    19.746372    33.273489    8.6259497    12.612127     22.30075    14.235163 
   29800    440.36237     59214982            0     59216696    12.683282    22.410383    14.179321    19.730633    33.268675    8.6486197    12.612127     22.30075    14.235163 
   30000    474.47391     59215351            0     59217198    12.683252    22.410478    14.178865    19.727676    33.278191    8.6029162    12.612127     22.30075    14.235163 
   30200    594.20089     59212250            0     59214563    12.683225    22.410381    14.178968    19.724923    33.268493    8.6132805    12.612127     22.30075    14.235163 
   30400    583.39175     59213359            0     59215630    12.683424    22.410485    14.179206     19.74489    33.278879    8.6370979    12.612127     22.30075    14.235163 
   30600    580.28896     59213403            0     59215662    12.683455    22.410421     14.17849    19.747922    33.272492     8.565436    12.612127     22.30075    14.235163 
   30800    551.93357     59211598            0     59213747    12.683185    22.410399    14.179057    19.720931     33.27029    8.6221814    12.612127     22.30075    14.235163 
   31000    387.06646     59213176            0     59214682     12.68331    22.410238    14.178883    19.733409    33.254168    8.6047123    12.612127     22.30075    14.235163 
   31200    686.28636     59214304            0     59216976    12.683419    22.410412    14.179256    19.744385    33.271548    8.6420499    12.612127     22.30075    14.235163 
   31400    809.69368     59214471            0     59217624    12.683393    22.410203     14.17907    19.741761    33.250617    8.6235098    12.612127     22.30075    14.235163 
   31600    343.95731     59214527            0     59215867    12.683244    22.410208    14.179251    19.726878    33.251129    8.6415884    12.612127     22.30075    14.235163 
   31800    538.05329     59214532            0     59216626    12.683226    22.410309    14.178848    19.725053    33.261284    8.6012597    12.612127     22.30075    14.235163 
   32000    500.64236     59212042            0     59213991    12.683211    22.410318    14.178762    19.723494    33.262202    8.5926376    12.612127     22.30075    14.235163 
   32200    695.75677     59212929            0     59215638     12.68333    22.410196    14.179377    19.735495    33.249913    8.6541838    12.612127     22.30075    14.235163 
   32400    397.85514     59214579            0     59216127    12.683356    22.410303    14.179225    19.738066    33.260704    8.6389406    12.612127     22.30075    14.235163 
   32600    261.23941     59213471            0     59214488    12.683414    22.410272    14.178587    19.743828    33.257569    8.5751278    12.612127     22.30075    14.235163 
   32800    356.04244     59214327            0     59215713    12.683303     22.41026    14.178747    19.732744    33.256404    8.5911845    12.612127     22.30075    14.235163 
   33000    547.87168     59213264            0     59215396    12.683273    22.410215    14.179009    19.729741    33.251843    8.6173489    12.612127     22.30075    14.235163 
   33200    376.39568     59212728            0     59214193    12.683286    22.410514    14.179404     19.73108    33.281778    8.6568889    12.612127     22.30075    14.235163 
   33400    469.15663     59214206            0     59216033    12.683259    22.410393    14.178827    19.728316    33.269703    8.5991995    12.612127     22.30075    14.235163 
   33600    435.86501     59211725            0     59213422    12.683375    22.410433    14.179005     19.73999    33.273648    8.6169679    12.612127     22.30075    14.235163 
   33800    366.76762     59212413            0     59213841    12.683207    22.410375    14.179184    19.723134    33.267871    8.6348846    12.612127     22.30075    14.235163 
   34000    582.50868     59213342            0     59215610    12.683216    22.410299    14.178818    19.724061    33.260291    8.5982208    12.612127     22.30075    14.235163 
   34200     275.7571     59212372            0     59213446    12.683401    22.410319    14.178609    19.742501    33.262281     8.577381    12.612127     22.30075    14.235163 
   34400    394.06465     59213213            0     59214747    12.683398    22.410332    14.178987    19.742208    33.263595    8.6151985    12.612127     22.30075    14.235163 
   34600    341.58875     59212320            0     59213650     12.68328    22.410195    14.179003    19.730428     33.24989    8.6167106    12.612127     22.30075    14.235163 
   34800    531.02728     59212195            0     59214262    12.683228    22.410492    14.179015    19.725223    33.279581    8.6179154    12.612127     22.30075    14.235163 
   35000    374.69637     59215061            0     59216519    12.683257    22.410169    14.178746    19.728161    33.247223    8.5910668    12.612127     22.30075    14.235163 
   35200    564.06575     59215215            0     59217411    12.683442    22.410268    14.178802    19.746643    33.257132    8.5966607    12.612127     22.30075    14.235163 
   35400    586.35592     59214722            0     59217004    12.683385    22.410388    14.179853    19.740944     33.26913    8.7017743    12.612127     22.30075    14.235163 
   35600     449.9276     59213692            0     59215444    12.683363     22.41038    14.179761    19.738781    33.268343    8.6925751    12.612127     22.30075    14.235163 
   35800    513.76167     59214654            0     59216654    12.683348     22.41037    14.178808    19.737232    33.267317    8.5972502    12.612127     22.30075    14.235163 
   36000    600.93349     59212611            0     59214950    12.683222    22.410425    14.178701    19.724642    33.272888    8.5865699    12.612127     22.30075    14.235163 
   36200    541.97737     59212823            0     59214933    12.683282    22.410247     14.17948    19.730604    33.255095    8.6645259    12.612127     22.30075    14.235163 
   36400     602.5638     59212577            0     59214923     12.68336    22.410262    14.178995    19.738457    33.256566    8.6159801    12.612127     22.30075    14.235163 
   36600    294.48908     59213795            0     59214941    12.683313    22.410451    14.178904    19.733746    33.275502     8.606841    12.612127     22.30075    14.235163 
   36800    692.97995     59213852            0     59216550    12.683358    22.410346    14.178958    19.738254    33.264937     8.612256    12.612127     22.30075    14.235163 
   37000      497.213     59213550            0     59215485    12.683265    22.410387    14.178854    19.728982    33.269066    8.6018525    12.612127     22.30075    14.235163 
   37200    317.15329     59215245            0     59216479    12.683411    22.410293    14.178178    19.743535    33.259698    8.5341993    12.612127     22.30075    14.235163 
   37400    669.30986     59214678            0     59217284    12.683359    22.410438    14.179121    19.738341    33.274165     8.628524    12.612127     22.30075    14.235163 
   37600    450.16085     59214562            0     59216315    12.683276    22.410467     14.17909    19.730026    33.277101    8.6254746    12.612127     22.30075    14.235163 
   37800    432.88171     59213132            0     59214817    12.683344    22.410271    14.178955    19.736843     33.25746    8.6119105    12.612127     22.30075    14.235163 
   38000    322.69495     59213810            0     59215066    12.683285    22.410279    14.178901    19.730908    33.258297    8.6065074    12.612127     22.30075    14.235163 
   38200    350.64248     59212609            0     59213974    12.683311    22.410283    14.178723    19.733516    33.258681    8.5887148    12.612127     22.30075    14.235163 
   38400    735.07133     59214155            0     59217017    12.683246    22.410368     14.17896     19.72708    33.267175    8.6124588    12.612127     22.30075    14.235163 
   38600    406.25125     59212324            0     59213905      12.6833    22.410289    14.179028    19.732422    33.259285    8.6192409    12.612127     22.30075    14.235163 
   38800    683.65617     59213304            0     59215965    12.683379    22.410323    14.179125    19.740379    33.262633    8.6289487    12.612127     22.30075    14.235163 
   39000    325.95426     59212132            0     59213401     12.68322    22.410277    14.178904    19.724465    33.258055    8.6068903    12.612127     22.30075    14.235163 
   39200    418.30734     59213120            0     59214748    12.683302    22.410539     14.17936    19.732681     33.28425     8.652452    12.612127     22.30075    14.235163 
   39400    336.98121     59212603            0     59213915    12.683382    22.410262    14.178963    19.740681    33.256565    8.6127408    12.612127     22.30075    14.235163 
   39600    424.71518     59214019            0     59215672    12.683447    22.410484    14.178903    19.747168    33.278746    8.6067236    12.612127     22.30075    14.235163 
   39800    375.59327     59212525            0     59213987    12.683509    22.410441    14.179128    19.753335    33.274439    8.6292905    12.612127     22.30075    14.235163 
   40000    395.97846     59213904            0     59215446    12.683233    22.410282    14.178736    19.725761    33.258526    8.5900962    12.612127     22.30075    14.235163 
   40200    654.28618     59215034            0     59217581    12.683213    22.410644    14.178911    19.723775    33.294796    8.6075482    12.612127     22.30075    14.235163 
   40400    351.05489     59214250            0     59215617    12.683335    22.410366    14.179458     19.73593    33.266919    8.6622542    12.612127     22.30075    14.235163 
   40600     656.2883     59213732            0     59216287    12.683223    22.410177    14.178511    19.724752    33.248071    8.5675769    12.612127     22.30075    14.235163 
   40800    372.52594     59212137            0     59213588    12.683402    22.410297    14.179213    19.742663    33.260006    8.6378127    12.612127     22.30075    14.235163 
   41000    447.59371     59212219            0     59213962    12.683416    22.410334    14.178724    19.744073    33.263727    8.5888272    12.612127     22.30075    14.235163 
   41200    477.97089     59214609            0     59216469     12.68329    22.410544    14.179205    19.731396    33.284742    8.6370029    12.612127     22.30075    14.235163 
   41400    366.07978     59213284            0     59214709    12.683276    22.410452    14.179184    19.730091    33.275519     8.634832    12.612127     22.30075    14.235163 
   41600    307.95428     59212715            0     59213914    12.683421    22.410318    14.179275    19.744565    33.262111    8.6440124    12.612127     22.30075    14.235163 
   41800    717.08879     59211969            0     59214761     12.68333    22.410284    14.178524    19.735492    33.258709    8.5688686    12.612127     22.30075    14.235163 
   42000    478.54527     59213556            0     59215419    12.683191     22.41034    14.179439    19.721499    33.264351    8.6603925    12.612127     22.30075    14.235163 
   42200    447.07582     59211599            0     59213340    12.683222    22.410356    14.178926    19.724628    33.265919     8.609062    12.612127     22.30075    14.235163 
   42400    497.09384     59212953            0     59214888    12.683241    22.410406     14.17876    19.726556    33.270998    8.5924685    12.612127     22.30075    14.235163 
   42600    541.00329     59213012            0     59215118    12.683285    22.410307    14.178892    19.730991    33.261028    8.6056913    12.612127     22.30075    14.235163 
   42800    495.15746     59212827            0     59214755    12.683573    22.410404    14.178771    19.759746    33.270762    8.5935566    12.612127     22.30075    14.235163 
   43000    426.33869     59212632            0     59214291    12.683275    22.410313    14.179237    19.729913    33.261645    8.6401645    12.612127     22.30075    14.235163 
   43200    524.94934     59214656            0     59216699    12.683261    22.410323    14.178507    19.728539     33.26265    8.5671059    12.612127     22.30075    14.235163 
   43400    621.73062     59216435            0     59218855    12.683343    22.410417    14.178626    19.736728     33.27206    8.5790759    12.612127     22.30075    14.235163 
   43600    363.46971     59212935            0     59214350    12.683317    22.410441    14.179139    19.734175    33.274495    8.6303577    12.612127     22.30075    14.235163 
   43800    476.54433     59214186            0     59216041    12.683317    22.410187    14.178705    19.734112    33.249004    8.5869339    12.612127     22.30075    14.235163 
   44000    569.62454     59214746            0     59216963    12.683263    22.410423    14.179902    19.728758     33.27264    8.7066545    12.612127     22.30075    14.235163 
   44200    535.72731     59212538            0     59214624    12.683263    22.410271    14.179403    19.728741    33.257439    8.6567933    12.612127     22.30075    14.235163 
   44400     537.4547     59214085            0     59216178    12.683183    22.410298    14.179278    19.720783    33.260203    8.6443023    12.612127     22.30075    14.235163 
   44600    528.98972     59213787            0     59215847    12.683179    22.410206    14.178722    19.720312    33.250922    8.5886788    12.612127     22.30075    14.235163 
   44800    332.32311     59213198            0     59214491     12.68333    22.410329    14.178888    19.735427    33.263226    8.6052528    12.612127     22.30075    14.235163 
   45000    391.61821     59212706            0     59214231    12.683242     22.41043    14.178821    19.726596    33.273366    8.5985769    12.612127     22.30075    14.235163 
   45200    637.85693     59213418            0     59215901    12.683211    22.410314    14.179075    19.723572    33.261772    8.6239268    12.612127     22.30075    14.235163 
   45400    346.52326     59215006            0     59216355    12.683239    22.410311    14.178348    19.726349    33.261445    8.5512431    12.612127     22.30075    14.235163 
   45600    446.24112     59212239            0     59213977    12.683373    22.410298    14.179177    19.739702    33.260158    8.6341326    12.612127     22.30075    14.235163 
   45800    506.04499     59214023            0     59215993     12.68324     22.41037    14.179558    19.726454    33.267332    8.6722638    12.612127     22.30075    14.235163 
   46000    505.84206     59213434            0     59215403    12.683171    22.410421    14.178972    19.719544    33.272485    8.6136274    12.612127     22.30075    14.235163 
   46200    389.15095     59213420            0     59214934     12.68327    22.410352     14.17927    19.729465    33.265511    8.6434385    12.612127     22.30075    14.235163 
   46400       650.67     59212856            0     59215389    12.683292    22.410375    14.178619    19.731633    33.267823    8.5783099    12.612127     22.30075    14.235163 
   46600     384.4642     59212444            0     59213941    12.683343    22.410369    14.179409    19.736766    33.267238    8.6573994    12.612127     22.30075    14.235163 
   46800    494.27729     59213056            0     59214981    12.683234    22.410274     14.17903    19.725809    33.257787     8.619464    12.612127     22.30075    14.235163 
   47000    273.40061     59212787            0     59213852    12.683345    22.410227    14.178915    19.736974    33.253082    8.6079084    12.612127     22.30075    14.235163 
   47200    428.97836     59213613            0     59215283      12.6834    22.410252     14.17894    19.742457    33.255588    8.6104688    12.612127     22.30075    14.235163 
   47400    303.00046     59215298            0     59216477    12.683274    22.410378    14.179554    19.729879    33.268114    8.6719248    12.612127     22.30075    14.235163 
   47600    373.70784     59212229            0     59213684    12.683302    22.410506    14.179007    19.732674    33.280974    8.6171862    12.612127     22.30075    14.235163 
   47800    410.45253     59212093            0     59213691    12.683373    22.410356    14.178981    19.739781    33.265942    8.6145138    12.612127     22.30075    14.235163 
   48000    370.08053     59212796            0     59214237    12.683265    22.410252    14.178995    19.728931    33.255556    8.6159459    12.612127     22.30075    14.235163 
   48200    305.45141     59212443            0     59213632    12.683264    22.410407    14.178898    19.728875    33.271068    8.6062842    12.612127     22.30075    14.235163 
   48400    690.50741     59214032            0     59216720    12.683316    22.410337    14.179096    19.734058    33.264068    8.6260605    12.612127     22.30075    14.235163 
   48600    464.03162     59212815            0     59214622    12.683255    22.410477    14.178721    19.727917    33.278061    8.5885567    12.612127     22.30075    14.235163 
   48800    497.82918     59212500            0     59214438      12.6834    22.410313     14.17924    19.742462    33.261679    8.6404322    12.612127     22.30075    14.235163 
   49000    273.54347     59214530            0     59215595    12.683354    22.410397    14.179398    19.737824    33.270031    8.6562877    12.612127     22.30075    14.235163 
   49200     394.3181     59211961            0     59213496    12.683324    22.410376    14.179045    19.734862    33.267913    8.6209507    12.612127     22.30075    14.235163 
   49400    358.14528     59212769            0     59214163    12.683432     22.41046    14.178926    19.745605    33.276321    8.6090429    12.612127     22.30075    14.235163 
   49600     460.5395     59214945            0     59216738    12.683297    22.410286    14.179103    19.732191    33.258947     8.626745    12.612127     22.30075    14.235163 
   49800    334.12679     59213659            0     59214960    12.683358    22.410246    14.178899    19.738256    33.254997    8.6063322    12.612127     22.30075    14.235163 
   50000    392.65206     59213084            0     59214613     12.68343    22.410243    14.178528    19.745445    33.254699    8.5692783    12.612127     22.30075    14.235163 
   50200    374.72727     59214182            0     59215641    12.683357    22.410181    14.178655    19.738178    33.248483    8.5819753    12.612127     22.30075    14.235163 
   50400    667.33551     59213026            0     59215624     12.68328    22.410352     14.17914    19.730457    33.265577    8.6304967    12.612127     22.30075    14.235163 
   50600    449.16899     59212897            0     59214645    12.683159    22.410326    14.179083     19.71836    33.262947    8.6247213    12.612127     22.30075    14.235163 
   50800    546.53796     59212108            0     59214235    12.683461    22.410312    14.179049    19.748524    33.261606    8.6213784    12.612127     22.30075    14.235163 
   51000    469.27503     59214675            0     59216502    12.683371    22.410346    14.178414    19.739545    33.264911    8.5578168    12.612127     22.30075    14.235163 
   51200    518.41684     59215250            0     59217268    12.683243    22.410331    14.178576    19.726742    33.263442    8.5740692    12.612127     22.30075    14.235163 
   51400    375.91825     59212968            0     59214431     12.68321    22.410323    14.178717    19.723412    33.262696    8.5881004    12.612127     22.30075    14.235163 
   51600    816.56293     59213405            0     59216584     12.68335    22.410258    14.178682    19.737457    33.256158    8.5846696    12.612127     22.30075    14.235163 
   51800    672.99578     59213663            0     59216283    12.683247    22.410417    14.178987      19.7271    33.272018    8.6151516    12.612127     22.30075    14.235163 
   52000    426.38123     59214173            0     59215833     12.68334    22.410285    14.178436    19.736452    33.258829    8.5600563    12.612127     22.30075    14.235163 
   52200    427.44946     59211983            0     59213647     12.68331     22.41017    14.178935    19.733443    33.247309    8.6099325    12.612127     22.30075    14.235163 
   52400    395.14139     59212583            0     59214122    12.683288    22.410369     14.17886    19.731203    33.267249     8.602431    12.612127     22.30075    14.235163 
   52600    335.70472     59213121            0     59214428    12.683118    22.410309    14.178663    19.714283    33.261283    8.5827643    12.612127     22.30075    14.235163 
   52800    470.01853     59212259            0     59214089    12.683414     22.41032    14.178436    19.743864    33.262334    8.5600201    12.612127     22.30075    14.235163 
   53000    398.32113     59212826            0     59214376    12.683208    22.410346    14.178622    19.723207    33.264962    8.5786006    12.612127     22.30075    14.235163 
   53200    289.53607     59212105            0     59213232    12.683286    22.410361    14.178952    19.731017    33.266465    8.6116382    12.612127     22.30075    14.235163 
   53400     496.1484     59215023            0     59216954    12.683354    22.410507    14.179015    19.737803    33.281076     8.617961    12.612127     22.30075    14.235163 
   53600    547.65064     59212210            0     59214342    12.683342    22.410357    14.178958    19.736652    33.266037    8.6123009    12.612127     22.30075    14.235163 
   53800    299.97765     59213721            0     59214889     12.68328    22.410304    14.178739    19.730453    33.260766    8.5903372    12.612127     22.30075    14.235163 
   54000    559.42956     59214103            0     59216281     12.68332    22.410335    14.179255    19.734486    33.263838    8.6420191    12.612127     22.30075    14.235163 
   54200     301.7713     59213977            0     59215151     12.68333    22.410339    14.178841    19.735464    33.264306    8.6005575    12.612127     22.30075    14.235163 
   54400    624.57604     59212677            0     59215108    12.683376    22.410288    14.179074    19.740016    33.259155    8.6238987    12.612127     22.30075    14.235163 
   54600    456.32081     59214515            0     59216292    12.683402     22.41038    14.179276    19.742671    33.268389    8.6440664    12.612127     22.30075    14.235163 
   54800    380.88722     59212529            0     59214012    12.683351    22.410419    14.178959    19.737595    33.272242    8.6123796    12.612127     22.30075    14.235163 
   55000    429.26524     59214755            0     59216426    12.683371    22.410322    14.178961    19.739577    33.262583    8.6125606    12.612127     22.30075    14.235163 
   55200    622.42218     59213908            0     59216332    12.683298    22.410253    14.178501     19.73226    33.255674    8.5665313    12.612127     22.30075    14.235163 
   55400    472.78911     59214097            0     59215937    12.683509    22.410545    14.179048    19.753403    33.284825    8.6212661    12.612127     22.30075    14.235163 
   55600    372.06582     59213377            0     59214826    12.683327    22.410237    14.178921    19.735181     33.25402    8.6085844    12.612127     22.30075    14.235163 
   55800    421.01493     59211630            0     59213269     12.68328     22.41036    14.178818    19.730425    33.266396    8.5982386    12.612127     22.30075    14.235163 
   56000    512.94748     59213052            0     59215049    12.683321    22.410302    14.178823    19.734552    33.260583    8.5987347    12.612127     22.30075    14.235163 
   56200    301.52248     59212793            0     59213966    12.683368    22.410456    14.179281    19.739201    33.275993    8.6445395    12.612127     22.30075    14.235163 
   56400    556.81318     59212689            0     59214856    12.683303    22.410365    14.178581    19.732761    33.266851    8.5745864    12.612127     22.30075    14.235163 
   56600    301.15087     59212475            0     59213647    12.683347    22.410345    14.179356    19.737193    33.264906    8.6520261    12.612127     22.30075    14.235163 
   56800    355.03643     59213918            0     59215300    12.683225     22.41033    14.179138    19.724945    33.263381    8.6302314    12.612127     22.30075    14.235163 
   57000    543.44428     59213096            0     59215212    12.683424    22.410394    14.179313    19.744822    33.269782    8.6477733    12.612127     22.30075    14.235163 
   57200    561.16432     59211666            0     59213851    12.683225     22.41028    14.178767    19.724908    33.258387      8.59313    12.612127     22.30075    14.235163 
   57400    482.47132     59212691            0     59214569    12.683143    22.410328    14.178897     19.71673    33.263187    8.6061994    12.612127     22.30075    14.235163 
   57600    396.36668     59213466            0     59215010    12.683305    22.410353    14.179157    19.732936    33.265664     8.632187    12.612127     22.30075    14.235163 
   57800    484.77381     59213073            0     59214960    12.683415    22.410295    14.179049       19.744     33.25987    8.6213152    12.612127     22.30075    14.235163 
   58000    452.60364     59213584            0     59215346    12.683242    22.410377     14.17961    19.726615    33.268066    8.6774995    12.612127     22.30075    14.235163 
   58200    416.56669     59212905            0     59214527    12.683337    22.410362      14.1795    19.736156    33.266594    8.6664411    12.612127     22.30075    14.235163 
   58400    529.17882     59212080            0     59214140    12.683263    22.410419     14.17854    19.728792    33.272262    8.5704348    12.612127     22.30075    14.235163 
   58600    286.75402     59213380            0     59214496    12.683247    22.410399     14.17837    19.727131    33.270245    8.5534765    12.612127     22.30075    14.235163 
   58800    380.04316     59212762            0     59214241    12.683313    22.410422    14.178899    19.733769    33.272522    8.6063893    12.612127     22.30075    14.235163 
   59000    415.92245     59214337            0     59215956    12.683325    22.410302    14.178492    19.734961    33.260582    8.5656054    12.612127     22.30075    14.235163 
   59200    382.81332     59213187            0     59214677    12.683451    22.410315    14.178795    19.747541    33.261847    8.5959325    12.612127     22.30075    14.235163 
   59400    401.45839     59213992            0     59215555    12.683357    22.410208    14.179174    19.738188    33.251172    8.6338965    12.612127     22.30075    14.235163 
   59600    501.42409     59212639            0     59214591    12.683366    22.410251     14.17904    19.739072    33.255482    8.6204538    12.612127     22.30075    14.235163 
   59800    321.86864     59212682            0     59213935    12.683209    22.410315    14.178553     19.72334    33.261883    8.5717401    12.612127     22.30075    14.235163 
   60000    353.80924     59213577            0     59214954    12.683311    22.410365    14.178632    19.733525    33.266845     8.579653    12.612127     22.30075    14.235163 
Loop time of 499.637 on 1 procs for 40000 steps with 1307 atoms

Performance: 3.459 ns/day, 6.939 hours/ns, 80.058 timesteps/s
100.0% CPU use with 1 MPI tasks x no OpenMP threads

MPI task timing breakdown:
Section |  min time  |  avg time  |  max time  |%varavg| %total
---------------------------------------------------------------
Pair    | 255.88     | 255.88     | 255.88     |   0.0 | 51.21
Bond    | 0.00753    | 0.00753    | 0.00753    |   0.0 |  0.00
Kspace  | 241.75     | 241.75     | 241.75     |   0.0 | 48.38
Neigh   | 0.12616    | 0.12616    | 0.12616    |   0.0 |  0.03
Comm    | 1.1484     | 1.1484     | 1.1484     |   0.0 |  0.23
Output  | 0.01109    | 0.01109    | 0.01109    |   0.0 |  0.00
Modify  | 0.36359    | 0.36359    | 0.36359    |   0.0 |  0.07
Other   |            | 0.352      |            |       |  0.07

Nlocal:    1307 ave 1307 max 1307 min
Histogram: 1 0 0 0 0 0 0 0 0 0
Nghost:    7931 ave 7931 max 7931 min
Histogram: 1 0 0 0 0 0 0 0 0 0
Neighs:    491248 ave 491248 max 491248 min
Histogram: 1 0 0 0 0 0 0 0 0 0

Total # of neighbors = 491248
Ave neighs/atom = 375.859
Ave special neighs/atom = 0
Neighbor list builds = 7
Dangerous builds = 1
write_data         data_melt.data
PPPMDisp initialization ...
  Coulomb G vector (1/distance) = 0.264777
  Coulomb grid = 30 50 30
  Coulomb stencil order = 5
  Coulomb estimated absolute RMS force accuracy = 0.000346238
  Coulomb estimated relative force accuracy = 1.04269e-06
  using double precision FFTs
  3d grid and FFT values/proc = 78033 45000
unfix              3
fix                4 GUEST nvt temp 313 313 100.0

# get MOF COM
compute            MOFCOM MOF com
variable           MOFCOM1 equal c_MOFCOM[1]
variable           MOFCOM2 equal c_MOFCOM[2]
variable           MOFCOM3 equal c_MOFCOM[3]
thermo_style       custom step temp epair emol etotal c_comT[1] c_comT[2] c_comT[3] c_comG[1] c_comG[2] c_comG[3] c_comM[1] c_comM[2] c_comM[3] c_MOFCOM[1] c_MOFCOM[2] c_MOFCOM[3]

# don't make MOF flexible
run                0
PPPMDisp initialization ...
  Coulomb G vector (1/distance) = 0.264777
  Coulomb grid = 30 50 30
  Coulomb stencil order = 5
  Coulomb estimated absolute RMS force accuracy = 0.000346238
  Coulomb estimated relative force accuracy = 1.04269e-06
  using double precision FFTs
  3d grid and FFT values/proc = 78033 45000
Memory usage per processor = 12.3698 Mbytes
Step Temp E_pair E_mol TotEng comT[1] comT[2] comT[3] comG[1] comG[2] comG[3] comM[1] comM[2] comM[3] MOFCOM[1 MOFCOM[2 MOFCOM[3 
   60000    353.80924     59213577            0     59214954    12.683311    22.410365    14.178632    19.733525    33.266845     8.579653    12.612127     22.30075    14.235163    12.612127     22.30075    14.235163 
Loop time of 0 on 1 procs for 0 steps with 1307 atoms

0.0% CPU use with 1 MPI tasks x no OpenMP threads

MPI task timing breakdown:
Section |  min time  |  avg time  |  max time  |%varavg| %total
---------------------------------------------------------------
Pair    | 0          | 0          | 0          |   0.0 |  0.00
Bond    | 0          | 0          | 0          |   0.0 |  0.00
Kspace  | 0          | 0          | 0          |   0.0 |  0.00
Neigh   | 0          | 0          | 0          |   0.0 |  0.00
Comm    | 0          | 0          | 0          |   0.0 |  0.00
Output  | 0          | 0          | 0          |   0.0 |  0.00
Modify  | 0          | 0          | 0          |   0.0 |  0.00
Other   |            | 0          |            |       |  0.00

Nlocal:    1307 ave 1307 max 1307 min
Histogram: 1 0 0 0 0 0 0 0 0 0
Nghost:    7931 ave 7931 max 7931 min
Histogram: 1 0 0 0 0 0 0 0 0 0
Neighs:    491251 ave 491251 max 491251 min
Histogram: 1 0 0 0 0 0 0 0 0 0

Total # of neighbors = 491251
Ave neighs/atom = 375.862
Ave special neighs/atom = 0
Neighbor list builds = 0
Dangerous builds = 0
velocity           GUEST create 313 38564
uncompute          MOFCOM
thermo_style       custom step temp epair emol etotal c_comT[1] c_comT[2] c_comT[3] c_comG[1] c_comG[2] c_comG[3] c_comM[1] c_comM[2] c_comM[3]
# fix                8 MOF recenter INIT INIT INIT shift all # Efrem says: technically should do this to get the diffusion coefficient correct, but not sure it works properly on rigid molecules, and it doesn't make a difference in practice because the drift is so small

# equilibration
run                1000000
PPPMDisp initialization ...
  Coulomb G vector (1/distance) = 0.264777
  Coulomb grid = 30 50 30
  Coulomb stencil order = 5
  Coulomb estimated absolute RMS force accuracy = 0.000346238
  Coulomb estimated relative force accuracy = 1.04269e-06
  using double precision FFTs
  3d grid and FFT values/proc = 78033 45000
Memory usage per processor = 12.3698 Mbytes
Step Temp E_pair E_mol TotEng comT[1] comT[2] comT[3] comG[1] comG[2] comG[3] comM[1] comM[2] comM[3] 
   60000    2.3966309     59213577            0     59213586    12.683311    22.410365    14.178632    19.733525    33.266845     8.579653    12.612127     22.30075    14.235163 
   60200    353.80516     59213227            0     59214604    12.683244    22.410268    14.178783    19.726818    33.257159    8.5947022    12.612127     22.30075    14.235163 
   60400    515.86511     59215118            0     59217126     12.68338    22.410386     14.17874    19.740461    33.268988     8.590449    12.612127     22.30075    14.235163 
   60600    473.08196     59213730            0     59215571    12.683394    22.410369    14.179276     19.74189    33.267292    8.6440623    12.612127     22.30075    14.235163 
   60800    527.42514     59214430            0     59216484     12.68337    22.410409    14.178748    19.739408    33.271275    8.5912447    12.612127     22.30075    14.235163 
   61000    334.12648     59211174            0     59212474    12.683205    22.410309    14.179038    19.722972    33.261219    8.6202619    12.612127     22.30075    14.235163 
   61200    561.39389     59213548            0     59215734     12.68341    22.410395    14.178619    19.743479    33.269885    8.5782953    12.612127     22.30075    14.235163 
   61400    454.06008     59212345            0     59214113    12.683372    22.410363    14.178643    19.739682    33.266626    8.5807083    12.612127     22.30075    14.235163 
   61600    511.44045     59214975            0     59216966     12.68339    22.410188    14.179058    19.741424    33.249104     8.622296    12.612127     22.30075    14.235163 
   61800    393.46335     59214817            0     59216349    12.683303    22.410311    14.178487    19.732708    33.261503     8.565133    12.612127     22.30075    14.235163 
   62000    500.64794     59212616            0     59214565    12.683232    22.410306    14.179208    19.725684    33.260932    8.6372996    12.612127     22.30075    14.235163 
   62200    304.46461     59214067            0     59215252    12.683301    22.410345    14.179128    19.732592    33.264832    8.6292762    12.612127     22.30075    14.235163 
   62400     300.9995     59213472            0     59214644      12.6833    22.410321    14.178818    19.732496    33.262412    8.5982082    12.612127     22.30075    14.235163 
   62600    514.38152     59215271            0     59217273    12.683079    22.410263    14.178491    19.710287     33.25669    8.5655257    12.612127     22.30075    14.235163 
   62800    381.39774     59211151            0     59212636    12.683313    22.410323    14.179109    19.733732    33.262647    8.6273399    12.612127     22.30075    14.235163 
   63000    396.68478     59214272            0     59215816    12.683411    22.410177    14.179145     19.74358    33.248069    8.6309352    12.612127     22.30075    14.235163 
   63200     294.9332     59214310            0     59215458    12.683399    22.410334    14.179112    19.742396    33.263777     8.627615    12.612127     22.30075    14.235163 
   63400     281.6996     59214856            0     59215952    12.683316    22.410348    14.179504    19.734034    33.265163    8.6668359    12.612127     22.30075    14.235163 
   63600    390.23026     59213119            0     59214638    12.683314    22.410328    14.179347    19.733857    33.263168    8.6511552    12.612127     22.30075    14.235163 
   63800    624.34458     59211685            0     59214115    12.683286    22.410328     14.17925    19.731027    33.263149    8.6414876    12.612127     22.30075    14.235163 
   64000    402.27909     59211038            0     59212604    12.683298    22.410327    14.178944     19.73221    33.263068    8.6108321    12.612127     22.30075    14.235163 
   64200    241.57738     59212945            0     59213886    12.683351    22.410468    14.179285    19.737543    33.277137    8.6449427    12.612127     22.30075    14.235163 
   64400    411.25396     59211527            0     59213128    12.683389    22.410342    14.178815    19.741349    33.264535    8.5979603    12.612127     22.30075    14.235163 
   64600    329.13146     59214650            0     59215931    12.683292    22.410287    14.179245    19.731601    33.259017    8.6410135    12.612127     22.30075    14.235163 
   64800    513.85638     59211935            0     59213936    12.683347    22.410307    14.178729    19.737176    33.261008    8.5893013    12.612127     22.30075    14.235163 
   65000    615.37422     59214272            0     59216668    12.683284    22.410359    14.178409    19.730829    33.266239    8.5572936    12.612127     22.30075    14.235163 
   65200    499.76791     59213058            0     59215003    12.683366    22.410368    14.179413    19.739033    33.267146    8.6578154    12.612127     22.30075    14.235163 
   65400    254.12997     59213527            0     59214516    12.683365     22.41045    14.179833    19.738948     33.27534    8.6997672    12.612127     22.30075    14.235163 
   65600    404.67562     59213646            0     59215221    12.683295    22.410427    14.178927    19.731991    33.273017    8.6091666    12.612127     22.30075    14.235163 
   65800    451.32573     59213687            0     59215444     12.68332    22.410401    14.179342    19.734456    33.270496    8.6506601    12.612127     22.30075    14.235163 
   66000    325.25669     59211541            0     59212807    12.683453    22.410362    14.178867    19.747781    33.266593    8.6031425    12.612127     22.30075    14.235163 
   66200    308.88612     59212580            0     59213783     12.68337     22.41028    14.179033    19.739424    33.258349    8.6197839    12.612127     22.30075    14.235163 
   66400    445.45174     59214435            0     59216169    12.683335    22.410331    14.178752    19.735911    33.263479      8.59169    12.612127     22.30075    14.235163 
   66600     347.0287     59212253            0     59213604    12.683364    22.410412    14.178778     19.73883    33.271516    8.5942948    12.612127     22.30075    14.235163 
   66800    313.88766     59213025            0     59214247    12.683304    22.410305      14.1784    19.732827    33.260829    8.5564082    12.612127     22.30075    14.235163 
   67000    440.81616     59212955            0     59214671    12.683221    22.410302    14.178987    19.724502    33.260569    8.6151566    12.612127     22.30075    14.235163 
   67200    573.42002     59213801            0     59216033    12.683373    22.410327    14.178743    19.739742    33.263053    8.5907947    12.612127     22.30075    14.235163 
   67400    442.89782     59214317            0     59216041      12.6834    22.410307    14.177855    19.742493    33.261058    8.5019562    12.612127     22.30075    14.235163 
   67600    306.98306     59213290            0     59214485    12.683332    22.410293    14.178933    19.735663    33.259658    8.6097477    12.612127     22.30075    14.235163 
   67800    257.51484     59213645            0     59214648    12.683267    22.410356    14.178492    19.729173    33.265956    8.5656678    12.612127     22.30075    14.235163 
   68000    428.48841     59214133            0     59215801    12.683272    22.410431     14.17866    19.729668    33.273478    8.5824104    12.612127     22.30075    14.235163 
   68200    343.84688     59211547            0     59212885    12.683391    22.410453    14.179039    19.741585    33.275676    8.6203313    12.612127     22.30075    14.235163 
   68400    398.04348     59212301            0     59213850    12.683278    22.410306    14.178969    19.730256    33.260997    8.6133997    12.612127     22.30075    14.235163 
   68600    480.49135     59211642            0     59213513    12.683314    22.410295     14.17892    19.733801    33.259832    8.6084537    12.612127     22.30075    14.235163 
   68800     273.3379     59213480            0     59214544    12.683183    22.410274    14.179738    19.720711    33.257752    8.6903201    12.612127     22.30075    14.235163 
   69000    246.87603     59213800            0     59214761    12.683295    22.410295    14.179008    19.731962    33.259834    8.6172539    12.612127     22.30075    14.235163 
   69200    406.32096     59214122            0     59215704    12.683281    22.410278    14.179197    19.730519    33.258106    8.6361597    12.612127     22.30075    14.235163 
   69400    350.09652     59213550            0     59214913    12.683292    22.410328    14.178634    19.731656    33.263125    8.5798409    12.612127     22.30075    14.235163 
   69600     240.4715     59212291            0     59213227    12.683333    22.410167    14.178686    19.735775    33.247027    8.5850864    12.612127     22.30075    14.235163 
   69800    297.05895     59213067            0     59214224    12.683401    22.410393     14.17906    19.742523    33.269708     8.622486    12.612127     22.30075    14.235163 
   70000    498.32633     59212899            0     59214839    12.683346    22.410305    14.179106    19.737036    33.260879    8.6270247    12.612127     22.30075    14.235163 
   70200    252.70042     59213024            0     59214008    12.683265    22.410343    14.178408     19.72898    33.264684    8.5571861    12.612127     22.30075    14.235163 
   70400    319.57634     59211666            0     59212910      12.6834    22.410389    14.179022    19.742423    33.269262    8.6186745    12.612127     22.30075    14.235163 
   70600    200.15307     59212302            0     59213081    12.683233    22.410287    14.179286    19.725741    33.259031    8.6450491    12.612127     22.30075    14.235163 
   70800    290.68281     59211192            0     59212323    12.683349     22.41032    14.179013    19.737313    33.262397    8.6178062    12.612127     22.30075    14.235163 
   71000    342.67113     59212686            0     59214020    12.683295    22.410352     14.17892    19.731897    33.265565    8.6085029    12.612127     22.30075    14.235163 
   71200    358.17583     59215170            0     59216564    12.683362    22.410351    14.178293    19.738619     33.26545    8.5457591    12.612127     22.30075    14.235163 
   71400    256.28808     59213627            0     59214625    12.683322    22.410334    14.179467    19.734668    33.263781    8.6631383    12.612127     22.30075    14.235163 
   71600    379.42336     59212900            0     59214377    12.683122    22.410266    14.178576    19.714659    33.256974    8.5740433    12.612127     22.30075    14.235163 
   71800    564.73674     59211223            0     59213422    12.683388    22.410386    14.179116    19.741254    33.269003    8.6280742    12.612127     22.30075    14.235163 
[...]
 1040000    136.47433     59211120            0     59211652    12.683353    22.410354    14.179199    19.737754    33.265749     8.636385    12.612127     22.30075    14.235163 
 1040200    250.69425     59211299            0     59212275    12.683316    22.410353    14.178953    19.734013    33.265683    8.6117735    12.612127     22.30075    14.235163 
 1040400    136.50431     59210901            0     59211433    12.683297    22.410331    14.179001    19.732183    33.263466    8.6166008    12.612127     22.30075    14.235163 
 1040600    197.40325     59211737            0     59212506    12.683316    22.410353    14.178752    19.734083    33.265678    8.5916992    12.612127     22.30075    14.235163 
 1040800    158.04929     59211349            0     59211964    12.683316    22.410353    14.178894    19.734034     33.26564    8.6058811    12.612127     22.30075    14.235163 
 1041000    165.37497     59211052            0     59211695    12.683297    22.410367    14.178938      19.7321    33.267014    8.6102735    12.612127     22.30075    14.235163 
 1041200    214.17866     59210940            0     59211774    12.683321     22.41032    14.178806     19.73456    33.262396    8.5970589    12.612127     22.30075    14.235163 
 1041400    218.06481     59212352            0     59213201    12.683316    22.410353     14.17871     19.73401    33.265678    8.5874746    12.612127     22.30075    14.235163 
 1041600    230.83487     59211461            0     59212360    12.683316    22.410353    14.178786    19.734015    33.265682    8.5950939    12.612127     22.30075    14.235163 
 1041800    144.18295     59211823            0     59212384    12.683321    22.410329    14.179114    19.734575    33.263215    8.6278317    12.612127     22.30075    14.235163 
 1042000    163.88846     59211541            0     59212179    12.683358    22.410354    14.178845    19.738249    33.265782    8.6009535    12.612127     22.30075    14.235163 
 1042200    201.83592     59210693            0     59211479    12.683305    22.410324    14.179215    19.732962     33.26278    8.6379208    12.612127     22.30075    14.235163 
 1042400    124.77372     59211196            0     59211681    12.683316    22.410353    14.179079    19.734013    33.265682    8.6243842    12.612127     22.30075    14.235163 
 1042600    203.81557     59211447            0     59212241    12.683329    22.410344    14.178902    19.735353    33.264728     8.606652    12.612127     22.30075    14.235163 
 1042800    192.43276     59211172            0     59211922    12.683316    22.410353    14.178982    19.734024    33.265678    8.6146724    12.612127     22.30075    14.235163 
 1043000    148.38313     59210677            0     59211254    12.683316    22.410353    14.179076    19.734012    33.265682    8.6240632    12.612127     22.30075    14.235163 
 1043200    192.79304     59210190            0     59210941    12.683352    22.410361    14.178919    19.737687    33.266489    8.6083241    12.612127     22.30075    14.235163 
 1043400    120.01021     59211407            0     59211874    12.683269    22.410353    14.178994    19.729364    33.265633    8.6158182    12.612127     22.30075    14.235163 
 1043600    295.98849     59211341            0     59212493    12.683315    22.410354    14.178857     19.73398    33.265746    8.6021782    12.612127     22.30075    14.235163 
 1043800    199.44561     59212259            0     59213036    12.683316    22.410353    14.179013    19.734012    33.265683    8.6177685    12.612127     22.30075    14.235163 
 1044000    228.73991     59211751            0     59212642    12.683323    22.410361    14.178999     19.73474     33.26647    8.6163487    12.612127     22.30075    14.235163 
 1044200    144.86494     59212313            0     59212877    12.683316    22.410353    14.178827    19.734015    33.265681    8.5991083    12.612127     22.30075    14.235163 
 1044400    165.46102     59212475            0     59213119    12.683299    22.410366    14.179284    19.732309    33.266983    8.6449176    12.612127     22.30075    14.235163 
 1044600    309.52584     59211702            0     59212906    12.683314    22.410357    14.179092    19.733828    33.266066    8.6256642    12.612127     22.30075    14.235163 
 1044800    286.22152     59212040            0     59213154    12.683367    22.410339    14.179003    19.739173    33.264237    8.6167658    12.612127     22.30075    14.235163 
 1045000    226.55982     59210631            0     59211513    12.683311    22.410349    14.179016     19.73355      33.2653    8.6180218    12.612127     22.30075    14.235163 
 1045200    262.19138     59211967            0     59212988    12.683319    22.410359    14.179208    19.734392    33.266263    8.6373097    12.612127     22.30075    14.235163 
 1045400    217.63275     59210910            0     59211757    12.683317    22.410355    14.179023    19.734142    33.265879    8.6187696    12.612127     22.30075    14.235163 
 1045600    187.09771     59210999            0     59211727    12.683317    22.410358    14.178903    19.734143    33.266194    8.6067534    12.612127     22.30075    14.235163 
 1045800    325.38969     59210903            0     59212169    12.683314    22.410333    14.178909    19.733882    33.263706    8.6074041    12.612127     22.30075    14.235163 
 1046000    245.28898     59211270            0     59212225    12.683295    22.410324    14.178809    19.731982    33.262791     8.597362    12.612127     22.30075    14.235163 
 1046200    225.45461     59210692            0     59211570    12.683316    22.410353     14.17886    19.734013    33.265682    8.6024595    12.612127     22.30075    14.235163 
 1046400    312.39093     59211627            0     59212843    12.683312     22.41035     14.17903    19.733617    33.265349    8.6194675    12.612127     22.30075    14.235163 
 1046600    183.09736     59211141            0     59211854    12.683337    22.410361    14.178994    19.736159     33.26646    8.6158169    12.612127     22.30075    14.235163 
 1046800     236.6317     59210937            0     59211858    12.683315    22.410352    14.179046     19.73399    33.265517    8.6210205    12.612127     22.30075    14.235163 
 1047000    185.38013     59212170            0     59212892    12.683325    22.410348    14.178905    19.734929    33.265199    8.6069827    12.612127     22.30075    14.235163 
 1047200    221.55126     59212042            0     59212904    12.683318    22.410346    14.178929    19.734198    33.264983    8.6093742    12.612127     22.30075    14.235163 
 1047400    125.30268     59211223            0     59211711    12.683317    22.410398    14.179064    19.734164    33.270174     8.622856    12.612127     22.30075    14.235163 
 1047600    161.23601     59212024            0     59212651    12.683337    22.410331    14.178657    19.736178    33.263414     8.582111    12.612127     22.30075    14.235163 
 1047800    289.22819     59211576            0     59212702    12.683316    22.410353    14.179044    19.734015    33.265671    8.6208529    12.612127     22.30075    14.235163 
 1048000    117.06035     59211523            0     59211979    12.683313    22.410353    14.179052    19.733714     33.26569    8.6216151    12.612127     22.30075    14.235163 
 1048200     173.6998     59212962            0     59213638    12.683314    22.410382    14.179175    19.733855    33.268526    8.6340131    12.612127     22.30075    14.235163 
 1048400    170.55448     59211449            0     59212113     12.68331    22.410342    14.178958    19.733479    33.264594    8.6122281    12.612127     22.30075    14.235163 
 1048600    91.289492     59211513            0     59211869    12.683301    22.410369    14.179109    19.732538     33.26725    8.6274031    12.612127     22.30075    14.235163 
 1048800    182.02894     59211146            0     59211854    12.683343    22.410329    14.179066    19.736744    33.263256    8.6230638    12.612127     22.30075    14.235163 
 1049000    142.67723     59211615            0     59212170    12.683302    22.410356    14.178928    19.732632    33.265957     8.609262    12.612127     22.30075    14.235163 
 1049200    155.02677     59210824            0     59211428    12.683271    22.410347    14.179068    19.729515    33.265076    8.6232992    12.612127     22.30075    14.235163 
 1049400     305.1623     59210779            0     59211967    12.683313    22.410393    14.178984    19.733733     33.26967    8.6148694    12.612127     22.30075    14.235163 
 1049600    342.84309     59211731            0     59213065    12.683314    22.410355    14.178952    19.733864    33.265823    8.6116737    12.612127     22.30075    14.235163 
 1049800    193.40505     59211874            0     59212627    12.683301    22.410329    14.178914    19.732541     33.26325    8.6078308    12.612127     22.30075    14.235163 
 1050000    330.78094     59210474            0     59211762    12.683316    22.410353    14.178869    19.734013    33.265682    8.6034016    12.612127     22.30075    14.235163 
 1050200    170.44776     59211143            0     59211807    12.683283    22.410336    14.178995    19.730795    33.263929    8.6159116    12.612127     22.30075    14.235163 
 1050400    190.79468     59211785            0     59212528    12.683317    22.410355    14.178998    19.734124    33.265869    8.6162921    12.612127     22.30075    14.235163 
 1050600    231.79835     59211790            0     59212692    12.683328    22.410352    14.178839    19.735289    33.265538    8.6003559    12.612127     22.30075    14.235163 
 1050800    260.08937     59210703            0     59211716    12.683315    22.410353    14.179041    19.733994    33.265654    8.6205187    12.612127     22.30075    14.235163 
 1051000    93.340738     59211114            0     59211478    12.683297    22.410342    14.178927    19.732145    33.264603    8.6091244    12.612127     22.30075    14.235163 
 1051200    384.99039     59211659            0     59213157    12.683314    22.410351     14.17912    19.733866    33.265453    8.6284573    12.612127     22.30075    14.235163 
 1051400    215.43362     59211858            0     59212697    12.683321    22.410353    14.179172    19.734565    33.265652    8.6336831    12.612127     22.30075    14.235163 
 1051600    135.69307     59211353            0     59211881    12.683322    22.410346    14.179044    19.734638    33.264971    8.6208376    12.612127     22.30075    14.235163 
 1051800    413.60635     59211004            0     59212614     12.68331    22.410358    14.179072    19.733416    33.266194    8.6237025    12.612127     22.30075    14.235163 
 1052000    159.26655     59211837            0     59212457    12.683316    22.410353    14.178996    19.734012    33.265682    8.6160981    12.612127     22.30075    14.235163 
 1052200    176.56947     59211933            0     59212620    12.683286    22.410316    14.178949    19.731021    33.261914    8.6113485    12.612127     22.30075    14.235163 
 1052400    89.282981     59211380            0     59211727    12.683328    22.410353    14.178975    19.735289    33.265614    8.6139316    12.612127     22.30075    14.235163 
 1052600    211.37869     59210887            0     59211710    12.683333    22.410353    14.179161    19.735724    33.265624    8.6325212    12.612127     22.30075    14.235163 
 1052800     227.9118     59211646            0     59212533    12.683329    22.410353    14.179104    19.735329     33.26561     8.626862    12.612127     22.30075    14.235163 
 1053000      152.943     59212625            0     59213220    12.683332    22.410378    14.179131    19.735696    33.268198    8.6295793    12.612127     22.30075    14.235163 
 1053200    206.49267     59211213            0     59212017    12.683336    22.410338    14.178991    19.735999    33.264139    8.6155581    12.612127     22.30075    14.235163 
 1053400    183.78615     59211495            0     59212211    12.683293    22.410354    14.178802    19.731758     33.26575    8.5966709    12.612127     22.30075    14.235163 
 1053600    94.089496     59210847            0     59211213    12.683316    22.410353    14.178979    19.734013    33.265682    8.6143801    12.612127     22.30075    14.235163 
 1053800    120.33968     59211397            0     59211865    12.683305    22.410375    14.178783    19.732918     33.26785    8.5947443    12.612127     22.30075    14.235163 
 1054000     113.1962     59210580            0     59211021    12.683332    22.410338    14.178957    19.735618    33.264136    8.6121433    12.612127     22.30075    14.235163 
 1054200    219.85274     59211355            0     59212211    12.683324    22.410336    14.178969    19.734897    33.263932    8.6133723    12.612127     22.30075    14.235163 
 1054400     327.2076     59211160            0     59212433    12.683306    22.410339    14.179094    19.733095     33.26426    8.6259027    12.612127     22.30075    14.235163 
 1054600    229.25458     59211003            0     59211896    12.683329    22.410367    14.178935    19.735359    33.267022     8.609958    12.612127     22.30075    14.235163 
 1054800    185.49808     59211129            0     59211851    12.683316    22.410353    14.179072    19.734013    33.265682    8.6237032    12.612127     22.30075    14.235163 
 1055000     283.6204     59210719            0     59211823    12.683298    22.410354    14.178914    19.732238     33.26578     8.607828    12.612127     22.30075    14.235163 
 1055200    193.70585     59210659            0     59211413    12.683314     22.41035    14.178932    19.733833     33.26533    8.6096106    12.612127     22.30075    14.235163 
 1055400    291.96062     59210354            0     59211490    12.683324    22.410351    14.179065    19.734874    33.265484    8.6229616    12.612127     22.30075    14.235163 
 1055600    156.66444     59211724            0     59212334    12.683316    22.410353    14.178917    19.734004      33.2657    8.6081217    12.612127     22.30075    14.235163 
 1055800    182.78621     59210705            0     59211417    12.683316    22.410345    14.178881    19.734022    33.264821     8.604544    12.612127     22.30075    14.235163 
 1056000    227.34402     59210563            0     59211448    12.683318    22.410367    14.179146    19.734252    33.267014    8.6310965    12.612127     22.30075    14.235163 
 1056200    276.33551     59211873            0     59212949    12.683329    22.410377    14.178981    19.735365     33.26801    8.6145401    12.612127     22.30075    14.235163 
 1056400    202.67229     59210588            0     59211377    12.683303    22.410372    14.178873     19.73276    33.267597     8.603769    12.612127     22.30075    14.235163 
 1056600    168.11431     59211666            0     59212320    12.683299    22.410354    14.179113     19.73238    33.265713    8.6277806    12.612127     22.30075    14.235163 
 1056800    167.22022     59211135            0     59211786    12.683303    22.410378    14.178763    19.732764    33.268129     8.592742    12.612127     22.30075    14.235163 
 1057000    103.34107     59212132            0     59212534    12.683311    22.410356    14.179116    19.733538    33.265971    8.6280814    12.612127     22.30075    14.235163 
 1057200    84.111052     59211879            0     59212207      12.6833    22.410343     14.17875    19.732481    33.264664    8.5914257    12.612127     22.30075    14.235163 
 1057400    171.52942     59211794            0     59212462    12.683321    22.410343    14.179027     19.73452    33.264707    8.6191559    12.612127     22.30075    14.235163 
 1057600    190.80751     59211796            0     59212539    12.683326    22.410354    14.179073    19.735033    33.265806    8.6237385    12.612127     22.30075    14.235163 
 1057800    308.14191     59210991            0     59212191     12.68331    22.410339    14.179039    19.733408    33.264278     8.620328    12.612127     22.30075    14.235163 
 1058000    142.90051     59210608            0     59211164     12.68329    22.410338    14.178867    19.731452     33.26414    8.6031122    12.612127     22.30075    14.235163 
 1058200    215.82344     59211873            0     59212714    12.683316    22.410353    14.178712    19.734067    33.265621    8.5876385    12.612127     22.30075    14.235163 
 1058400    99.365972     59211709            0     59212096    12.683295    22.410366    14.178977    19.731989    33.266925    8.6141574    12.612127     22.30075    14.235163 
 1058600    309.24886     59210367            0     59211571    12.683328    22.410329    14.179037    19.735205    33.263238    8.6201871    12.612127     22.30075    14.235163 
 1058800     186.4479     59211228            0     59211954    12.683322    22.410353    14.178902    19.734664    33.265645    8.6066964    12.612127     22.30075    14.235163 
 1059000    171.43343     59211518            0     59212185    12.683316    22.410353    14.178976    19.733998     33.26566    8.6140727    12.612127     22.30075    14.235163 
 1059200    265.51432     59212338            0     59213372    12.683316    22.410353    14.178899    19.734011    33.265682    8.6064042    12.612127     22.30075    14.235163 
 1059400    209.86809     59211136            0     59211953    12.683329    22.410352    14.178979    19.735335    33.265608     8.614354    12.612127     22.30075    14.235163 
 1059600    151.96566     59210451            0     59211042    12.683307    22.410385    14.178786    19.733147    33.268905    8.5950896    12.612127     22.30075    14.235163 
 1059800    246.29467     59210716            0     59211674    12.683316    22.410352     14.17889    19.734065    33.265579    8.6054343    12.612127     22.30075    14.235163 
 1060000    129.28947     59211483            0     59211986    12.683313    22.410344    14.179011    19.733724    33.264742    8.6175554    12.612127     22.30075    14.235163 
Loop time of 12168.5 on 1 procs for 1000000 steps with 1307 atoms

Performance: 3.550 ns/day, 6.760 hours/ns, 82.179 timesteps/s
100.0% CPU use with 1 MPI tasks x no OpenMP threads

MPI task timing breakdown:
Section |  min time  |  avg time  |  max time  |%varavg| %total
---------------------------------------------------------------
Pair    | 6259.2     | 6259.2     | 6259.2     |   0.0 | 51.44
Bond    | 0.1595     | 0.1595     | 0.1595     |   0.0 |  0.00
Kspace  | 5866.4     | 5866.4     | 5866.4     |   0.0 | 48.21
Neigh   | 0          | 0          | 0          |   0.0 |  0.00
Comm    | 26.611     | 26.611     | 26.611     |   0.0 |  0.22
Output  | 0.2752     | 0.2752     | 0.2752     |   0.0 |  0.00
Modify  | 7.6718     | 7.6718     | 7.6718     |   0.0 |  0.06
Other   |            | 8.191      |            |       |  0.07

Nlocal:    1307 ave 1307 max 1307 min
Histogram: 1 0 0 0 0 0 0 0 0 0
Nghost:    7931 ave 7931 max 7931 min
Histogram: 1 0 0 0 0 0 0 0 0 0
Neighs:    491251 ave 491251 max 491251 min
Histogram: 1 0 0 0 0 0 0 0 0 0

Total # of neighbors = 491251
Ave neighs/atom = 375.862
Ave special neighs/atom = 0
Neighbor list builds = 0
Dangerous builds = 0
write_data         data_nvt_eq.data
PPPMDisp initialization ...
  Coulomb G vector (1/distance) = 0.264777
  Coulomb grid = 30 50 30
  Coulomb stencil order = 5
  Coulomb estimated absolute RMS force accuracy = 0.000346238
  Coulomb estimated relative force accuracy = 1.04269e-06
  using double precision FFTs
  3d grid and FFT values/proc = 78033 45000

# data collection
reset_timestep     0
fix                5 GUEST ave/time 1 1 10 f_4[1] f_4[2] f_4[3] f_4[13] f_4[14] f_4[15] file traj.CofMs mode vector
ERROR: Fix ave/time fix does not calculate an array (../fix_ave_time.cpp:238)
