LAMMPS data file. CGCMM style. atom_style full generated by VMD/TopoTools v1.5 on Tue Oct 04 15:06:05 CEST 2016
 1496 atoms
 1086 bonds
 1516 angles
 1828 dihedrals
 472 impropers
 12 atom types
 8 bond types
 12 angle types
 16 dihedral types
 4 improper types
 0.208200 26.322200  xlo xhi
 0.078750 45.308750  ylo yhi
 0.020750 27.687750  zlo zhi

# Pair Coeffs
#
# 1  Ca
# 2  Cb
# 3  Cc
# 4  Cd
# 5  H
# 6  Hw
# 7  M
# 8  Mg
# 9  Oa
# 10  Ob
# 11  Oc
# 12  Ow

# Bond Coeffs
#
# 1  Ca-Cb
# 2  Ca-Oa
# 3  Ca-Ob
# 4  Cb-Cc
# 5  Cb-Cd
# 6  Cc-Cd
# 7  Cc-Oc
# 8  Cd-H

# Angle Coeffs
#
# 1  Ca-Cb-Cc
# 2  Ca-Cb-Cd
# 3  Cb-Ca-Oa
# 4  Cb-Ca-Ob
# 5  Cb-Cc-Cd
# 6  Cb-Cc-Oc
# 7  Cb-Cd-Cc
# 8  Cb-Cd-H
# 9  Cc-Cb-Cd
# 10  Cc-Cd-H
# 11  Cd-Cc-Oc
# 12  Oa-Ca-Ob

# Dihedral Coeffs
#
# 1  Ca-Cb-Cc-Cd
# 2  Ca-Cb-Cc-Oc
# 3  Ca-Cb-Cd-Cc
# 4  Ca-Cb-Cd-H
# 5  Cb-Cc-Cd-Cb
# 6  Cb-Cc-Cd-H
# 7  Cc-Cb-Cd-Cc
# 8  Cc-Cb-Cd-H
# 9  Cd-Cb-Cc-Cd
# 10  Cd-Cb-Cc-Oc
# 11  Oa-Ca-Cb-Cc
# 12  Oa-Ca-Cb-Cd
# 13  Ob-Ca-Cb-Cc
# 14  Ob-Ca-Cb-Cd
# 15  Oc-Cc-Cd-Cb
# 16  Oc-Cc-Cd-H

# Improper Coeffs
#
# 1  Ca-Cc-Cb-Cd
# 2  Cb-Cc-Cd-H
# 3  Cb-Cd-Cc-Oc
# 4  Cb-Oa-Ca-Ob

 Atoms

1 1 12 0.000000 26.114401 45.230499 14.898000 # Ow 
2 1 6 0.524220 25.357401 45.230499 14.312000 # Hw 
3 1 6 0.524220 26.871401 45.230499 14.312000 # Hw 
4 1 7 -1.048440 26.114401 45.230499 14.773000 # M 
5 1 12 0.000000 26.114401 45.230499 17.026001 # Ow 
6 1 6 0.524220 25.357401 45.230499 16.439999 # Hw 
7 1 6 0.524220 26.871401 45.230499 16.439999 # Hw 
8 1 7 -1.048440 26.114401 45.230499 16.901001 # M 
9 1 12 0.000000 26.114401 45.230499 19.153999 # Ow 
10 1 6 0.524220 25.357401 45.230499 18.568001 # Hw 
11 1 6 0.524220 26.871401 45.230499 18.568001 # Hw 
12 1 7 -1.048440 26.114401 45.230499 19.028999 # M 
13 1 12 0.000000 26.114401 45.230499 21.282000 # Ow 
14 1 6 0.524220 25.357401 45.230499 20.695999 # Hw 
15 1 6 0.524220 26.871401 45.230499 20.695999 # Hw 
16 1 7 -1.048440 26.114401 45.230499 21.157000 # M 
17 1 12 0.000000 26.114401 45.230499 23.410999 # Ow 
18 1 6 0.524220 25.357401 45.230499 22.825001 # Hw 
19 1 6 0.524220 26.871401 45.230499 22.825001 # Hw 
20 1 7 -1.048440 26.114401 45.230499 23.285999 # M 
21 1 12 0.000000 26.114401 45.230499 25.539000 # Ow 
22 1 6 0.524220 25.357401 45.230499 24.952999 # Hw 
23 1 6 0.524220 26.871401 45.230499 24.952999 # Hw 
24 1 7 -1.048440 26.114401 45.230499 25.414000 # M 
25 1 12 0.000000 26.114401 45.230499 0.000000 # Ow 
26 1 6 0.524220 25.357401 45.230499 27.080999 # Hw 
27 1 6 0.524220 26.871401 45.230499 27.080999 # Hw 
28 1 7 -1.048440 26.114401 45.230499 27.542000 # M 
29 1 12 0.000000 26.114401 45.230499 2.128000 # Ow 
30 1 6 0.524220 25.357401 45.230499 1.542000 # Hw 
31 1 6 0.524220 26.871401 45.230499 1.542000 # Hw 
32 1 7 -1.048440 26.114401 45.230499 2.003000 # M 
33 1 12 0.000000 26.114401 45.230499 4.256000 # Ow 
34 1 6 0.524220 25.357401 45.230499 3.671000 # Hw 
35 1 6 0.524220 26.871401 45.230499 3.671000 # Hw 
36 1 7 -1.048440 26.114401 45.230499 4.131000 # M 
37 1 12 0.000000 26.114401 45.230499 6.385000 # Ow 
38 1 6 0.524220 25.357401 45.230499 5.799000 # Hw 
39 1 6 0.524220 26.871401 45.230499 5.799000 # Hw 
40 1 7 -1.048440 26.114401 45.230499 6.260000 # M 
41 1 12 0.000000 26.114401 45.230499 8.513000 # Ow 
42 1 6 0.524220 25.357401 45.230499 7.927000 # Hw 
43 1 6 0.524220 26.871401 45.230499 7.927000 # Hw 
44 1 7 -1.048440 26.114401 45.230499 8.388000 # M 
45 1 12 0.000000 26.114401 45.230499 10.641000 # Ow 
46 1 6 0.524220 25.357401 45.230499 10.055000 # Hw 
47 1 6 0.524220 26.871401 45.230499 10.055000 # Hw 
48 1 7 -1.048440 26.114401 45.230499 10.516000 # M 
49 1 12 0.000000 26.114401 45.230499 12.769000 # Ow 
50 1 6 0.524220 25.357401 45.230499 12.183000 # Hw 
51 1 6 0.524220 26.871401 45.230499 12.183000 # Hw 
52 1 7 -1.048440 26.114401 45.230499 12.644000 # M 
53 1 12 0.000000 26.114401 22.614500 14.898000 # Ow 
54 1 6 0.524220 25.357401 22.614500 14.312000 # Hw 
55 1 6 0.524220 26.871401 22.614500 14.312000 # Hw 
56 1 7 -1.048440 26.114401 22.614500 14.773000 # M 
57 1 12 0.000000 26.114401 22.614500 17.026001 # Ow 
58 1 6 0.524220 25.357401 22.614500 16.439999 # Hw 
59 1 6 0.524220 26.871401 22.614500 16.439999 # Hw 
60 1 7 -1.048440 26.114401 22.614500 16.901001 # M 
61 1 12 0.000000 26.114401 22.614500 19.153999 # Ow 
62 1 6 0.524220 25.357401 22.614500 18.568001 # Hw 
63 1 6 0.524220 26.871401 22.614500 18.568001 # Hw 
64 1 7 -1.048440 26.114401 22.614500 19.028999 # M 
65 1 12 0.000000 26.114401 22.614500 21.282000 # Ow 
66 1 6 0.524220 25.357401 22.614500 20.695999 # Hw 
67 1 6 0.524220 26.871401 22.614500 20.695999 # Hw 
68 1 7 -1.048440 26.114401 22.614500 21.157000 # M 
69 1 12 0.000000 26.114401 22.614500 23.410999 # Ow 
70 1 6 0.524220 25.357401 22.614500 22.825001 # Hw 
71 1 6 0.524220 26.871401 22.614500 22.825001 # Hw 
72 1 7 -1.048440 26.114401 22.614500 23.285999 # M 
73 1 12 0.000000 26.114401 22.614500 25.539000 # Ow 
74 1 6 0.524220 25.357401 22.614500 24.952999 # Hw 
75 1 6 0.524220 26.871401 22.614500 24.952999 # Hw 
76 1 7 -1.048440 26.114401 22.614500 25.414000 # M 
77 1 12 0.000000 26.114401 22.614500 0.000000 # Ow 
78 1 6 0.524220 25.357401 22.614500 27.080999 # Hw 
79 1 6 0.524220 26.871401 22.614500 27.080999 # Hw 
80 1 7 -1.048440 26.114401 22.614500 27.542000 # M 
81 1 12 0.000000 26.114401 22.614500 2.128000 # Ow 
82 1 6 0.524220 25.357401 22.614500 1.542000 # Hw 
83 1 6 0.524220 26.871401 22.614500 1.542000 # Hw 
84 1 7 -1.048440 26.114401 22.614500 2.003000 # M 
85 1 12 0.000000 26.114401 22.614500 4.256000 # Ow 
86 1 6 0.524220 25.357401 22.614500 3.671000 # Hw 
87 1 6 0.524220 26.871401 22.614500 3.671000 # Hw 
88 1 7 -1.048440 26.114401 22.614500 4.131000 # M 
89 1 12 0.000000 26.114401 22.614500 6.385000 # Ow 
90 1 6 0.524220 25.357401 22.614500 5.799000 # Hw 
91 1 6 0.524220 26.871401 22.614500 5.799000 # Hw 
92 1 7 -1.048440 26.114401 22.614500 6.260000 # M 
93 1 12 0.000000 26.114401 22.614500 8.513000 # Ow 
94 1 6 0.524220 25.357401 22.614500 7.927000 # Hw 
95 1 6 0.524220 26.871401 22.614500 7.927000 # Hw 
96 1 7 -1.048440 26.114401 22.614500 8.388000 # M 
97 1 12 0.000000 26.114401 22.614500 10.641000 # Ow 
98 1 6 0.524220 25.357401 22.614500 10.055000 # Hw 
99 1 6 0.524220 26.871401 22.614500 10.055000 # Hw 
100 1 7 -1.048440 26.114401 22.614500 10.516000 # M 
101 1 12 0.000000 26.114401 22.614500 12.769000 # Ow 
102 1 6 0.524220 25.357401 22.614500 12.183000 # Hw 
103 1 6 0.524220 26.871401 22.614500 12.183000 # Hw 
104 1 7 -1.048440 26.114401 22.614500 12.644000 # M 
105 1 12 0.000000 13.056400 45.230499 14.898000 # Ow 
106 1 6 0.524220 12.299400 45.230499 14.312000 # Hw 
107 1 6 0.524220 13.813400 45.230499 14.312000 # Hw 
108 1 7 -1.048440 13.056400 45.230499 14.773000 # M 
109 1 12 0.000000 13.056400 45.230499 17.026001 # Ow 
110 1 6 0.524220 12.299400 45.230499 16.439999 # Hw 
111 1 6 0.524220 13.813400 45.230499 16.439999 # Hw 
112 1 7 -1.048440 13.056400 45.230499 16.901001 # M 
113 1 12 0.000000 13.056400 45.230499 19.153999 # Ow 
114 1 6 0.524220 12.299400 45.230499 18.568001 # Hw 
115 1 6 0.524220 13.813400 45.230499 18.568001 # Hw 
116 1 7 -1.048440 13.056400 45.230499 19.028999 # M 
117 1 12 0.000000 13.056400 45.230499 21.282000 # Ow 
118 1 6 0.524220 12.299400 45.230499 20.695999 # Hw 
119 1 6 0.524220 13.813400 45.230499 20.695999 # Hw 
120 1 7 -1.048440 13.056400 45.230499 21.157000 # M 
121 1 12 0.000000 13.056400 45.230499 23.410999 # Ow 
122 1 6 0.524220 12.299400 45.230499 22.825001 # Hw 
123 1 6 0.524220 13.813400 45.230499 22.825001 # Hw 
124 1 7 -1.048440 13.056400 45.230499 23.285999 # M 
125 1 12 0.000000 13.056400 45.230499 25.539000 # Ow 
126 1 6 0.524220 12.299400 45.230499 24.952999 # Hw 
127 1 6 0.524220 13.813400 45.230499 24.952999 # Hw 
128 1 7 -1.048440 13.056400 45.230499 25.414000 # M 
129 1 12 0.000000 13.056400 45.230499 0.000000 # Ow 
130 1 6 0.524220 12.299400 45.230499 27.080999 # Hw 
131 1 6 0.524220 13.813400 45.230499 27.080999 # Hw 
132 1 7 -1.048440 13.056400 45.230499 27.542000 # M 
133 1 12 0.000000 13.056400 45.230499 2.128000 # Ow 
134 1 6 0.524220 12.299400 45.230499 1.542000 # Hw 
135 1 6 0.524220 13.813400 45.230499 1.542000 # Hw 
136 1 7 -1.048440 13.056400 45.230499 2.003000 # M 
137 1 12 0.000000 13.056400 45.230499 4.256000 # Ow 
138 1 6 0.524220 12.299400 45.230499 3.671000 # Hw 
139 1 6 0.524220 13.813400 45.230499 3.671000 # Hw 
140 1 7 -1.048440 13.056400 45.230499 4.131000 # M 
141 1 12 0.000000 13.056400 45.230499 6.385000 # Ow 
142 1 6 0.524220 12.299400 45.230499 5.799000 # Hw 
143 1 6 0.524220 13.813400 45.230499 5.799000 # Hw 
144 1 7 -1.048440 13.056400 45.230499 6.260000 # M 
145 1 12 0.000000 13.056400 45.230499 8.513000 # Ow 
146 1 6 0.524220 12.299400 45.230499 7.927000 # Hw 
147 1 6 0.524220 13.813400 45.230499 7.927000 # Hw 
148 1 7 -1.048440 13.056400 45.230499 8.388000 # M 
149 1 12 0.000000 13.056400 45.230499 10.641000 # Ow 
150 1 6 0.524220 12.299400 45.230499 10.055000 # Hw 
151 1 6 0.524220 13.813400 45.230499 10.055000 # Hw 
152 1 7 -1.048440 13.056400 45.230499 10.516000 # M 
153 1 12 0.000000 13.056400 45.230499 12.769000 # Ow 
154 1 6 0.524220 12.299400 45.230499 12.183000 # Hw 
155 1 6 0.524220 13.813400 45.230499 12.183000 # Hw 
156 1 7 -1.048440 13.056400 45.230499 12.644000 # M 
157 1 12 0.000000 13.056400 22.614500 14.898000 # Ow 
158 1 6 0.524220 12.299400 22.614500 14.312000 # Hw 
159 1 6 0.524220 13.813400 22.614500 14.312000 # Hw 
160 1 7 -1.048440 13.056400 22.614500 14.773000 # M 
161 1 12 0.000000 13.056400 22.614500 17.026001 # Ow 
162 1 6 0.524220 12.299400 22.614500 16.439999 # Hw 
163 1 6 0.524220 13.813400 22.614500 16.439999 # Hw 
164 1 7 -1.048440 13.056400 22.614500 16.901001 # M 
165 1 12 0.000000 13.056400 22.614500 19.153999 # Ow 
166 1 6 0.524220 12.299400 22.614500 18.568001 # Hw 
167 1 6 0.524220 13.813400 22.614500 18.568001 # Hw 
168 1 7 -1.048440 13.056400 22.614500 19.028999 # M 
169 1 12 0.000000 13.056400 22.614500 21.282000 # Ow 
170 1 6 0.524220 12.299400 22.614500 20.695999 # Hw 
171 1 6 0.524220 13.813400 22.614500 20.695999 # Hw 
172 1 7 -1.048440 13.056400 22.614500 21.157000 # M 
173 1 12 0.000000 13.056400 22.614500 23.410999 # Ow 
174 1 6 0.524220 12.299400 22.614500 22.825001 # Hw 
175 1 6 0.524220 13.813400 22.614500 22.825001 # Hw 
176 1 7 -1.048440 13.056400 22.614500 23.285999 # M 
177 1 12 0.000000 13.056400 22.614500 25.539000 # Ow 
178 1 6 0.524220 12.299400 22.614500 24.952999 # Hw 
179 1 6 0.524220 13.813400 22.614500 24.952999 # Hw 
180 1 7 -1.048440 13.056400 22.614500 25.414000 # M 
181 1 12 0.000000 13.056400 22.614500 0.000000 # Ow 
182 1 6 0.524220 12.299400 22.614500 27.080999 # Hw 
183 1 6 0.524220 13.813400 22.614500 27.080999 # Hw 
184 1 7 -1.048440 13.056400 22.614500 27.542000 # M 
185 1 12 0.000000 13.056400 22.614500 2.128000 # Ow 
186 1 6 0.524220 12.299400 22.614500 1.542000 # Hw 
187 1 6 0.524220 13.813400 22.614500 1.542000 # Hw 
188 1 7 -1.048440 13.056400 22.614500 2.003000 # M 
189 1 12 0.000000 13.056400 22.614500 4.256000 # Ow 
190 1 6 0.524220 12.299400 22.614500 3.671000 # Hw 
191 1 6 0.524220 13.813400 22.614500 3.671000 # Hw 
192 1 7 -1.048440 13.056400 22.614500 4.131000 # M 
193 1 12 0.000000 13.056400 22.614500 6.385000 # Ow 
194 1 6 0.524220 12.299400 22.614500 5.799000 # Hw 
195 1 6 0.524220 13.813400 22.614500 5.799000 # Hw 
196 1 7 -1.048440 13.056400 22.614500 6.260000 # M 
197 1 12 0.000000 13.056400 22.614500 8.513000 # Ow 
198 1 6 0.524220 12.299400 22.614500 7.927000 # Hw 
199 1 6 0.524220 13.813400 22.614500 7.927000 # Hw 
200 1 7 -1.048440 13.056400 22.614500 8.388000 # M 
201 1 8 0.000000 5.314000 7.966000 21.684460 # Mg LIG
202 2 8 0.000000 18.371000 30.580999 21.684460 # Mg LIG
203 3 8 0.000000 4.242000 6.491000 19.378460 # Mg LIG
204 4 8 0.000000 17.299000 29.106001 19.378460 # Mg LIG
205 1 8 0.000000 3.501000 8.158000 23.990459 # Mg LIG
206 2 8 0.000000 16.558001 30.773001 23.990459 # Mg LIG
207 5 8 0.000000 7.743000 14.649000 19.815460 # Mg LIG
208 6 8 0.000000 20.799000 37.264000 19.815460 # Mg LIG
209 7 8 0.000000 8.815000 16.124001 22.120461 # Mg LIG
210 8 8 0.000000 21.872000 38.738998 22.120461 # Mg LIG
211 3 8 0.000000 9.556000 14.457000 17.509460 # Mg LIG
212 4 8 0.000000 22.613001 37.071999 17.509460 # Mg LIG
213 9 8 0.000000 8.815000 31.200001 19.815460 # Mg LIG
214 10 8 0.000000 21.872000 8.585000 19.815460 # Mg LIG
215 11 8 0.000000 9.556000 29.534000 22.120461 # Mg LIG
216 12 8 0.000000 22.613001 6.919000 22.120461 # Mg LIG
217 5 8 0.000000 4.242000 21.568001 23.990459 # Mg LIG
218 13 8 0.000000 17.299000 44.182999 23.990459 # Mg LIG
219 14 8 0.000000 8.815000 1.047000 17.509460 # Mg LIG
220 8 8 0.000000 21.872000 23.662001 17.509460 # Mg LIG
221 9 8 0.000000 5.314000 38.118999 23.990459 # Mg LIG
222 10 8 0.000000 18.371000 15.504000 23.990459 # Mg LIG
223 15 8 0.000000 7.743000 44.801998 22.120461 # Mg LIG
224 16 8 0.000000 20.799000 22.187000 22.120461 # Mg LIG
225 17 8 0.000000 9.556000 44.611000 19.815460 # Mg LIG
226 18 8 0.000000 22.613001 21.996000 19.815460 # Mg LIG
227 19 8 0.000000 3.501000 38.311001 19.378460 # Mg LIG
228 20 8 0.000000 16.558001 15.696000 19.378460 # Mg LIG
229 21 8 0.000000 4.242000 36.645000 21.684460 # Mg LIG
230 22 8 0.000000 17.299000 14.030000 21.684460 # Mg LIG
231 23 8 0.000000 5.314000 23.042999 19.378460 # Mg LIG
232 24 8 0.000000 18.371000 0.428000 19.378460 # Mg LIG
233 25 8 0.000000 3.501000 23.233999 21.684460 # Mg LIG
234 26 8 0.000000 16.558001 0.619000 21.684460 # Mg LIG
235 13 8 0.000000 7.743000 29.726000 17.509460 # Mg LIG
236 14 8 0.000000 20.799000 7.111000 17.509460 # Mg LIG
237 3 1 0.000000 5.704000 9.170000 19.055460 # Ca LIG
238 4 1 0.000000 18.761000 31.785000 19.055460 # Ca LIG
239 27 2 0.000000 6.098000 10.247000 18.115459 # Cb LIG
240 28 2 0.000000 19.155001 32.862000 18.115459 # Cb LIG
241 27 4 0.000000 6.932000 11.258000 18.610460 # Cd LIG
242 28 4 0.000000 19.989000 33.873001 18.610460 # Cd LIG
243 27 5 0.000000 7.248000 11.206000 19.650459 # H LIG
244 28 5 0.000000 20.305000 33.820999 19.650459 # H LIG
245 3 10 0.000000 6.149000 9.140000 20.245461 # Ob LIG
246 4 10 0.000000 19.205999 31.754999 20.245461 # Ob LIG
247 3 9 0.000000 4.881000 8.269000 18.627460 # Oa LIG
248 4 9 0.000000 17.938000 30.884001 18.627460 # Oa LIG
249 27 11 0.000000 8.183000 13.257000 18.410460 # Oc LIG
250 28 11 0.000000 21.240000 35.872002 18.410460 # Oc LIG
251 1 9 0.000000 4.721000 6.715000 23.238461 # Oa LIG
252 2 9 0.000000 17.777000 29.330000 23.238461 # Oa LIG
253 1 9 0.000000 3.455000 7.631000 20.933460 # Oa LIG
254 2 9 0.000000 16.511000 30.246000 20.933460 # Oa LIG
255 29 11 0.000000 4.874000 9.358000 23.088459 # Oc LIG
256 30 11 0.000000 17.930000 31.973000 23.088459 # Oc LIG
257 31 11 0.000000 5.668000 6.177000 20.783461 # Oc LIG
258 32 11 0.000000 18.725000 28.792000 20.783461 # Oc LIG
259 29 3 0.000000 5.672000 10.284000 23.664459 # Cc LIG
260 30 3 0.000000 18.729000 32.898998 23.664459 # Cc LIG
261 7 1 0.000000 7.353000 13.445000 22.444460 # Ca LIG
262 8 1 0.000000 20.409000 36.060001 22.444460 # Ca LIG
263 29 2 0.000000 6.959000 12.368000 23.384460 # Cb LIG
264 30 2 0.000000 20.016001 34.983002 23.384460 # Cb LIG
265 27 3 0.000000 7.384000 12.331000 17.835461 # Cc LIG
266 28 3 0.000000 20.441000 34.945999 17.835461 # Cc LIG
267 29 4 0.000000 6.125000 11.357000 22.889460 # Cd LIG
268 30 4 0.000000 19.181000 33.972000 22.889460 # Cd LIG
269 29 5 0.000000 5.809000 11.409000 21.849461 # H LIG
270 30 5 0.000000 18.865999 34.023998 21.849461 # H LIG
271 7 10 0.000000 6.908000 13.475000 21.254459 # Ob LIG
272 8 10 0.000000 19.965000 36.090000 21.254459 # Ob LIG
273 7 9 0.000000 8.175000 14.346000 22.871460 # Oa LIG
274 8 9 0.000000 21.232000 36.960999 22.871460 # Oa LIG
275 3 9 0.000000 8.336000 15.900000 18.260460 # Oa LIG
276 4 9 0.000000 21.393000 38.514999 18.260460 # Oa LIG
277 5 9 0.000000 9.602000 14.984000 20.566460 # Oa LIG
278 6 9 0.000000 22.659000 37.598999 20.566460 # Oa LIG
279 32 11 0.000000 7.389000 16.438000 20.716461 # Oc LIG
280 32 11 0.000000 20.445999 39.053001 20.716461 # Oc LIG
281 13 9 0.000000 9.602000 30.059999 18.260460 # Oa LIG
282 14 9 0.000000 22.659000 7.445000 18.260460 # Oa LIG
283 11 9 0.000000 8.336000 30.976999 22.871460 # Oa LIG
284 12 9 0.000000 21.393000 8.362000 22.871460 # Oa LIG
285 25 9 0.000000 4.721000 21.791000 20.933460 # Oa LIG
286 32 9 0.000000 17.777000 44.405998 20.933460 # Oa LIG
287 32 11 0.000000 5.668000 21.254000 18.477459 # Oc LIG
288 32 11 0.000000 18.725000 43.868999 18.477459 # Oc LIG
289 32 9 0.000000 8.336000 0.824000 20.566460 # Oa LIG
290 18 9 0.000000 21.393000 23.438999 20.566460 # Oa LIG
291 32 11 0.000000 7.389000 1.361000 23.021460 # Oc LIG
292 32 11 0.000000 20.445999 23.976000 23.021460 # Oc LIG
293 32 11 0.000000 4.874000 39.512001 18.477459 # Oc LIG
294 32 11 0.000000 17.930000 16.896999 18.477459 # Oc LIG
295 21 1 0.000000 5.704000 39.324001 21.360460 # Ca LIG
296 22 1 0.000000 18.761000 16.709000 21.360460 # Ca LIG
297 32 2 0.000000 6.098000 40.401001 20.421459 # Cb LIG
298 32 2 0.000000 19.155001 17.785999 20.421459 # Cb LIG
299 32 3 0.000000 5.672000 40.438000 19.053459 # Cc LIG
300 32 3 0.000000 18.729000 17.823000 19.053459 # Cc LIG
301 32 4 0.000000 6.932000 41.410999 20.916460 # Cd LIG
302 32 4 0.000000 19.989000 18.796000 20.916460 # Cd LIG
303 32 5 0.000000 7.248000 41.359001 21.955460 # H LIG
304 32 5 0.000000 20.305000 18.743999 21.955460 # H LIG
305 21 10 0.000000 6.149000 39.292999 22.550461 # Ob LIG
306 22 10 0.000000 19.205999 16.677999 22.550461 # Ob LIG
307 21 9 0.000000 4.882000 38.423000 20.933460 # Oa LIG
308 22 9 0.000000 17.938000 15.808000 20.933460 # Oa LIG
309 32 2 0.000000 6.959000 42.521000 18.773460 # Cb LIG
310 32 2 0.000000 20.016001 19.906000 18.773460 # Cb LIG
311 32 3 0.000000 7.384000 42.484001 20.140461 # Cc LIG
312 32 3 0.000000 20.441000 19.868999 20.140461 # Cc LIG
313 32 4 0.000000 6.125000 41.509998 18.277460 # Cd LIG
314 32 4 0.000000 19.181000 18.895000 18.277460 # Cd LIG
315 32 9 0.000000 8.175000 44.499001 18.260460 # Oa LIG
316 8 9 0.000000 21.232000 21.884001 18.260460 # Oa LIG
317 32 11 0.000000 8.183000 43.410000 20.716461 # Oc LIG
318 32 11 0.000000 21.240000 20.795000 20.716461 # Oc LIG
319 32 11 0.000000 5.668000 36.330002 23.088459 # Oc LIG
320 32 11 0.000000 18.725000 13.715000 23.088459 # Oc LIG
321 32 1 0.000000 7.353000 43.598000 17.833460 # Ca LIG
322 8 1 0.000000 20.409000 20.983000 17.833460 # Ca LIG
323 33 10 0.000000 6.908000 43.627998 23.559460 # Ob LIG
324 34 10 0.000000 19.965000 21.013000 23.559460 # Ob LIG
325 15 9 0.000000 9.602000 45.137001 22.871460 # Oa LIG
326 16 9 0.000000 22.659000 22.521999 22.871460 # Oa LIG
327 19 9 0.000000 4.721000 36.868000 18.627460 # Oa LIG
328 20 9 0.000000 17.778000 14.253000 18.627460 # Oa LIG
329 9 9 0.000000 3.455000 37.785000 23.238461 # Oa LIG
330 10 9 0.000000 16.511000 15.170000 23.238461 # Oa LIG
331 32 11 0.000000 2.515000 22.156000 23.088459 # Oc LIG
332 32 11 0.000000 15.572000 44.771000 23.088459 # Oc LIG
333 32 3 0.000000 1.314000 22.385000 23.664459 # Cc LIG
334 32 3 0.000000 14.371000 45.000000 23.664459 # Cc LIG
335 15 1 0.000000 10.794000 44.875000 22.444460 # Ca LIG
336 16 1 0.000000 23.851000 22.260000 22.444460 # Ca LIG
337 32 2 0.000000 11.924000 45.073002 23.384460 # Cb LIG
338 16 2 0.000000 24.980000 22.458000 23.384460 # Cb LIG
339 32 4 0.000000 0.159000 22.240999 22.889460 # Cd LIG
340 32 4 0.000000 13.216000 44.855999 22.889460 # Cd LIG
341 32 5 0.000000 0.271000 21.941000 21.849461 # H LIG
342 32 5 0.000000 13.328000 44.556000 21.849461 # H LIG
343 15 10 0.000000 10.990000 44.474998 21.254459 # Ob LIG
344 16 10 0.000000 24.047001 21.860001 21.254459 # Ob LIG
345 32 3 0.000000 6.070000 35.174999 23.664459 # Cc LIG
346 32 3 0.000000 19.127001 12.560000 23.664459 # Cc LIG
347 11 1 0.000000 7.967000 32.139999 22.444460 # Ca LIG
348 12 1 0.000000 21.024000 9.525000 22.444460 # Ca LIG
349 32 2 0.000000 7.231000 33.020000 23.384460 # Cb LIG
350 32 2 0.000000 20.288000 10.405000 23.384460 # Cb LIG
351 32 4 0.000000 6.773000 34.248001 22.889460 # Cd LIG
352 32 4 0.000000 19.830000 11.633000 22.889460 # Cd LIG
353 32 5 0.000000 6.977000 34.494999 21.849461 # H LIG
354 32 5 0.000000 20.033001 11.880000 21.849461 # H LIG
355 11 10 0.000000 8.216000 32.509998 21.254459 # Ob LIG
356 12 10 0.000000 21.273001 9.895000 21.254459 # Ob LIG
357 32 11 0.000000 10.541000 30.612000 20.716461 # Oc LIG
358 32 11 0.000000 23.598000 7.997000 20.716461 # Oc LIG
359 19 1 0.000000 5.090000 35.705002 19.055460 # Ca LIG
360 20 1 0.000000 18.146000 13.090000 19.055460 # Ca LIG
361 32 2 0.000000 5.826000 34.825001 18.115459 # Cb LIG
362 32 2 0.000000 18.882000 12.210000 18.115459 # Cb LIG
363 32 4 0.000000 6.284000 33.597000 18.610460 # Cd LIG
364 32 4 0.000000 19.341000 10.982000 18.610460 # Cd LIG
365 32 5 0.000000 6.080000 33.349998 19.650459 # H LIG
366 32 5 0.000000 19.136999 10.735000 19.650459 # H LIG
367 19 10 0.000000 4.841000 35.334999 20.245461 # Ob LIG
368 20 10 0.000000 17.898001 12.720000 20.245461 # Ob LIG
369 32 11 0.000000 2.515000 37.233002 20.783461 # Oc LIG
370 32 11 0.000000 15.572000 14.618000 20.783461 # Oc LIG
371 35 10 0.000000 2.067000 38.446999 17.939461 # Ob LIG
372 36 10 0.000000 15.124000 15.832000 17.939461 # Ob LIG
373 9 1 0.000000 2.263000 38.046001 23.666460 # Ca LIG
374 10 1 0.000000 15.320000 15.431000 23.666460 # Ca LIG
375 32 2 0.000000 1.133000 37.848999 22.726460 # Cb LIG
376 32 2 0.000000 14.190000 15.234000 22.726460 # Cb LIG
377 32 3 0.000000 1.314000 37.462002 21.358459 # Cc LIG
378 32 3 0.000000 14.371000 14.847000 21.358459 # Cc LIG
379 32 4 0.000000 12.898000 15.451000 23.221460 # Cd LIG
380 32 4 0.000000 25.954000 38.066002 23.221460 # Cd LIG
381 37 5 0.000000 12.785000 15.751000 17.344460 # H LIG
382 38 5 0.000000 25.841999 38.366001 17.344460 # H LIG
383 5 1 0.000000 10.794000 14.722000 20.138460 # Ca LIG
384 6 1 0.000000 23.851000 37.337002 20.138460 # Ca LIG
385 32 2 0.000000 11.924000 14.919000 21.078461 # Cb LIG
386 32 2 0.000000 24.980000 37.534000 21.078461 # Cb LIG
387 32 3 0.000000 11.743000 15.306000 22.446461 # Cc LIG
388 32 3 0.000000 24.799000 37.921001 22.446461 # Cc LIG
389 32 4 0.000000 0.159000 37.317001 20.583460 # Cd LIG
390 32 4 0.000000 13.216000 14.702000 20.583460 # Cd LIG
391 32 5 0.000000 0.272000 37.016998 19.543461 # H LIG
392 32 5 0.000000 13.328000 14.402000 19.543461 # H LIG
393 5 10 0.000000 10.990000 14.322000 18.948460 # Ob LIG
394 6 10 0.000000 24.047001 36.937000 18.948460 # Ob LIG
395 32 11 0.000000 10.541000 15.535000 23.021460 # Oc LIG
396 32 11 0.000000 23.598000 38.150002 23.021460 # Oc LIG
397 39 10 0.000000 4.841000 5.182000 17.939461 # Ob LIG
398 40 10 0.000000 17.898001 27.797001 17.939461 # Ob LIG
399 32 11 0.000000 2.515000 7.080000 18.477459 # Oc LIG
400 32 11 0.000000 15.572000 29.695000 18.477459 # Oc LIG
401 1 1 0.000000 5.090000 5.552000 23.666460 # Ca LIG
402 2 1 0.000000 18.146000 28.167000 23.666460 # Ca LIG
403 32 2 0.000000 5.826000 4.672000 22.726460 # Cb LIG
404 32 2 0.000000 18.882000 27.287001 22.726460 # Cb LIG
405 31 3 0.000000 6.070000 5.022000 21.358459 # Cc LIG
406 32 3 0.000000 19.127001 27.636999 21.358459 # Cc LIG
407 32 4 0.000000 6.284000 3.444000 23.221460 # Cd LIG
408 32 4 0.000000 19.340000 26.059000 23.221460 # Cd LIG
409 41 5 0.000000 6.080000 3.197000 17.344460 # H LIG
410 42 5 0.000000 19.136999 25.812000 17.344460 # H LIG
411 32 1 0.000000 7.967000 1.987000 20.138460 # Ca LIG
412 18 1 0.000000 21.024000 24.601999 20.138460 # Ca LIG
413 31 2 0.000000 7.231000 2.866000 21.078461 # Cb LIG
414 32 2 0.000000 20.288000 25.481001 21.078461 # Cb LIG
415 32 3 0.000000 6.987000 2.516000 22.446461 # Cc LIG
416 32 3 0.000000 20.042999 25.131001 22.446461 # Cc LIG
417 31 4 0.000000 6.773000 4.094000 20.583460 # Cd LIG
418 32 4 0.000000 19.830000 26.709000 20.583460 # Cd LIG
419 31 5 0.000000 6.977000 4.341000 19.543461 # H LIG
420 32 5 0.000000 20.033001 26.955999 19.543461 # H LIG
421 32 10 0.000000 8.216000 2.357000 18.948460 # Ob LIG
422 18 10 0.000000 21.273001 24.972000 18.948460 # Ob LIG
423 1 1 0.000000 2.263000 7.893000 21.360460 # Ca LIG
424 2 1 0.000000 15.320000 30.507999 21.360460 # Ca LIG
425 32 2 0.000000 1.133000 7.696000 20.421459 # Cb LIG
426 32 2 0.000000 14.190000 30.311001 20.421459 # Cb LIG
427 32 3 0.000000 1.314000 7.309000 19.053459 # Cc LIG
428 32 3 0.000000 14.371000 29.924000 19.053459 # Cc LIG
429 32 4 0.000000 12.898000 30.528000 20.916460 # Cd LIG
430 32 4 0.000000 25.954000 7.913000 20.916460 # Cd LIG
431 32 5 0.000000 12.785000 30.827999 21.955460 # H LIG
432 32 5 0.000000 25.841999 8.213000 21.955460 # H LIG
433 1 10 0.000000 2.067000 8.293000 22.550461 # Ob LIG
434 2 10 0.000000 15.124000 30.908001 22.550461 # Ob LIG
435 32 2 0.000000 11.924000 29.996000 18.773460 # Cb LIG
436 32 2 0.000000 24.980000 7.381000 18.773460 # Cb LIG
437 32 3 0.000000 11.743000 30.382999 20.140461 # Cc LIG
438 32 3 0.000000 24.799000 7.768000 20.140461 # Cc LIG
439 32 4 0.000000 0.159000 7.164000 18.277460 # Cd LIG
440 32 4 0.000000 13.216000 29.778999 18.277460 # Cd LIG
441 13 1 0.000000 10.794000 29.799000 17.833460 # Ca LIG
442 14 1 0.000000 23.851000 7.184000 17.833460 # Ca LIG
443 43 10 0.000000 10.990000 29.398001 23.559460 # Ob LIG
444 44 10 0.000000 24.047001 6.783000 23.559460 # Ob LIG
445 25 1 0.000000 5.090000 20.628000 21.360460 # Ca LIG
446 32 1 0.000000 18.146000 43.243000 21.360460 # Ca LIG
447 32 2 0.000000 5.826000 19.749001 20.421459 # Cb LIG
448 32 2 0.000000 18.882000 42.363998 20.421459 # Cb LIG
449 32 3 0.000000 6.070000 20.099001 19.053459 # Cc LIG
450 32 3 0.000000 19.127001 42.714001 19.053459 # Cc LIG
451 32 4 0.000000 6.284000 18.521000 20.916460 # Cd LIG
452 32 4 0.000000 19.341000 41.136002 20.916460 # Cd LIG
453 32 5 0.000000 6.080000 18.274000 21.955460 # H LIG
454 32 5 0.000000 19.136999 40.889000 21.955460 # H LIG
455 25 10 0.000000 4.841000 20.257999 22.550461 # Ob LIG
456 32 10 0.000000 17.898001 42.873001 22.550461 # Ob LIG
457 32 2 0.000000 7.231000 17.943001 18.773460 # Cb LIG
458 32 2 0.000000 20.288000 40.557999 18.773460 # Cb LIG
459 32 3 0.000000 6.987000 17.593000 20.140461 # Cc LIG
460 32 3 0.000000 20.042999 40.208000 20.140461 # Cc LIG
461 32 4 0.000000 6.773000 19.171000 18.277460 # Cd LIG
462 32 4 0.000000 19.830000 41.785999 18.277460 # Cd LIG
463 3 1 0.000000 7.967000 17.063000 17.833460 # Ca LIG
464 4 1 0.000000 21.024000 39.678001 17.833460 # Ca LIG
465 45 10 0.000000 8.216000 17.433001 23.559460 # Ob LIG
466 46 10 0.000000 21.273001 40.048000 23.559460 # Ob LIG
467 47 10 0.000000 6.149000 24.216999 17.939461 # Ob LIG
468 48 10 0.000000 19.205999 1.602000 17.939461 # Ob LIG
469 23 9 0.000000 3.455000 22.708000 18.627460 # Oa LIG
470 24 9 0.000000 16.511000 0.093000 18.627460 # Oa LIG
471 32 11 0.000000 4.874000 24.434999 20.783461 # Oc LIG
472 32 11 0.000000 17.930000 1.820000 20.783461 # Oc LIG
473 5 1 0.000000 5.704000 24.247000 23.666460 # Ca LIG
474 32 1 0.000000 18.761000 1.632000 23.666460 # Ca LIG
475 32 2 0.000000 6.098000 25.323999 22.726460 # Cb LIG
476 32 2 0.000000 19.155001 2.709000 22.726460 # Cb LIG
477 32 3 0.000000 5.672000 25.361000 21.358459 # Cc LIG
478 32 3 0.000000 18.729000 2.746000 21.358459 # Cc LIG
479 32 4 0.000000 6.932000 26.334999 23.221460 # Cd LIG
480 32 4 0.000000 19.989000 3.720000 23.221460 # Cd LIG
481 49 5 0.000000 7.248000 26.282000 17.344460 # H LIG
482 50 5 0.000000 20.305000 3.667000 17.344460 # H LIG
483 5 9 0.000000 4.881000 23.346001 23.238461 # Oa LIG
484 32 9 0.000000 17.938000 0.731000 23.238461 # Oa LIG
485 9 1 0.000000 7.353000 28.521000 20.138460 # Ca LIG
486 10 1 0.000000 20.409000 5.906000 20.138460 # Ca LIG
487 32 2 0.000000 6.959000 27.444000 21.078461 # Cb LIG
488 32 2 0.000000 20.016001 4.829000 21.078461 # Cb LIG
489 32 3 0.000000 7.384000 27.407000 22.446461 # Cc LIG
490 32 3 0.000000 20.441000 4.792000 22.446461 # Cc LIG
491 32 4 0.000000 6.125000 26.434000 20.583460 # Cd LIG
492 32 4 0.000000 19.181000 3.819000 20.583460 # Cd LIG
493 32 5 0.000000 5.809000 26.486000 19.543461 # H LIG
494 32 5 0.000000 18.865999 3.871000 19.543461 # H LIG
495 9 10 0.000000 6.908000 28.552000 18.948460 # Ob LIG
496 10 10 0.000000 19.965000 5.937000 18.948460 # Ob LIG
497 9 9 0.000000 8.175000 29.422001 20.566460 # Oa LIG
498 10 9 0.000000 21.232000 6.807000 20.566460 # Oa LIG
499 32 11 0.000000 8.183000 28.333000 23.021460 # Oc LIG
500 32 11 0.000000 21.240000 5.718000 23.021460 # Oc LIG
501 23 1 0.000000 2.263000 22.969999 19.055460 # Ca LIG
502 24 1 0.000000 15.320000 0.355000 19.055460 # Ca LIG
503 23 2 0.000000 1.133000 22.771999 18.115459 # Cb LIG
504 32 2 0.000000 14.190000 0.157000 18.115459 # Cb LIG
505 32 4 0.000000 12.898000 0.374000 18.610460 # Cd LIG
506 32 4 0.000000 25.954000 22.989000 18.610460 # Cd LIG
507 32 5 0.000000 12.785000 0.674000 19.650459 # H LIG
508 32 5 0.000000 25.841999 23.289000 19.650459 # H LIG
509 23 10 0.000000 2.067000 23.370001 20.245461 # Ob LIG
510 24 10 0.000000 15.124000 0.755000 20.245461 # Ob LIG
511 32 11 0.000000 7.389000 31.514999 18.410460 # Oc LIG
512 32 11 0.000000 20.445999 8.900000 18.410460 # Oc LIG
513 51 5 0.000000 5.809000 41.563000 24.154461 # H LIG
514 52 5 0.000000 18.865999 18.948000 24.154461 # H LIG
515 32 11 0.000000 10.541000 0.459000 18.410460 # Oc LIG
516 32 11 0.000000 23.598000 23.073999 18.410460 # Oc LIG
517 32 3 0.000000 11.743000 0.230000 17.835461 # Cc LIG
518 32 3 0.000000 24.799999 22.844999 17.835461 # Cc LIG
519 32 3 0.000000 6.986000 32.669998 17.835461 # Cc LIG
520 32 3 0.000000 20.042999 10.055000 17.835461 # Cc LIG
521 53 5 0.000000 0.271000 6.864000 24.154461 # H LIG
522 54 5 0.000000 13.328000 29.479000 24.154461 # H LIG
523 55 5 0.000000 6.977000 19.417999 24.154461 # H LIG
524 56 5 0.000000 20.033001 42.033001 24.154461 # H LIG
525 1 8 0.000000 5.314000 7.966000 0.934500 # Mg LIG
526 2 8 0.000000 18.371000 30.580999 0.934500 # Mg LIG