LAMMPS data file. CGCMM style. atom_style full generated by VMD/TopoTools v1.5 on Sun Jun 11 11:09:11 PDT 2017
 1587 atoms
 162 bonds
 0 angles
 0 dihedrals
 0 impropers
 11 atom types
 1 bond types
 0 angle types
 0 dihedral types
 0 improper types
 1.889931 45.665932  xlo xhi
 -2.142075 41.617923  ylo yhi
 -0.015006 27.664994  zlo zhi

# Pair Coeffs
#
# 1  Ca
# 2  Cb
# 3  Cc
# 4  Cd
# 5  Cg
# 6  H
# 7  Mg
# 8  Oa
# 9  Ob
# 10  Oc
# 11  Og

 Masses

 1 12.011000 # Ca
 2 12.011000 # Cb
 3 12.011000 # Cc
 4 12.011000 # Cd
 5 12.011000 # Cg
 6 1.008000 # H
 7 24.305000 # Mg
 8 15.999000 # Oa
 9 15.999000 # Ob
 10 15.999000 # Oc
 11 15.999000 # Og

 Atoms

1 1 11 -0.325600 19.155220 29.124346 18.466988 # Og 
2 1 5 0.651200 19.155220 29.124346 17.306988 # Cg 
3 1 11 -0.325600 19.155220 29.124346 16.146988 # Og 
4 2 11 -0.325600 19.156219 29.126345 23.079988 # Og 
5 2 5 0.651200 19.156219 29.126345 21.919989 # Cg 
6 2 11 -0.325600 19.156219 29.126345 20.759989 # Og 
7 3 11 -0.325600 19.152388 29.152451 0.013000 # Og 
8 3 5 0.651200 19.157219 29.127344 26.532990 # Cg 
9 3 11 -0.325600 19.157219 29.127344 25.372990 # Og 
10 4 11 -0.325600 19.153387 29.154451 4.627000 # Og 
11 4 5 0.651200 19.153387 29.154451 3.467000 # Cg 
12 4 11 -0.325600 19.153387 29.154451 2.307000 # Og 
13 5 11 -0.325600 19.154388 29.155451 9.240000 # Og 
14 5 5 0.651200 19.154388 29.155451 8.080000 # Cg 
15 5 11 -0.325600 19.154388 29.155451 6.920000 # Og 
16 6 11 -0.325600 19.154388 29.156450 13.853000 # Og 
17 6 5 0.651200 19.154388 29.156450 12.693000 # Cg 
18 6 11 -0.325600 19.154388 29.156450 11.533000 # Og 
19 7 11 -0.325600 13.684219 38.598347 18.466988 # Og 
20 7 5 0.651200 13.684219 38.598347 17.306988 # Cg 
21 7 11 -0.325600 13.684219 38.598347 16.146988 # Og 
22 8 11 -0.325600 13.685219 38.599346 23.079988 # Og 
23 8 5 0.651200 13.685219 38.599346 21.919989 # Cg 
24 8 11 -0.325600 13.685219 38.599346 20.759989 # Og 
25 9 11 -0.325600 13.680389 38.626453 0.013000 # Og 
26 9 5 0.651200 13.685219 38.601349 26.532990 # Cg 
27 9 11 -0.325600 13.685219 38.601349 25.372990 # Og 
28 10 11 -0.325600 13.681389 38.627453 4.627000 # Og 
29 10 5 0.651200 13.681389 38.627453 3.467000 # Cg 
30 10 11 -0.325600 13.681389 38.627453 2.307000 # Og 
31 11 11 -0.325600 13.682388 38.628452 9.240000 # Og 
32 11 5 0.651200 13.682388 38.628452 8.080000 # Cg 
33 11 11 -0.325600 13.682388 38.628452 6.920000 # Og 
34 12 11 -0.325600 13.683388 38.630455 13.853000 # Og 
35 12 5 0.651200 13.683388 38.630455 12.693000 # Cg 
36 12 11 -0.325600 13.683388 38.630455 11.533000 # Og 
37 13 11 -0.325600 30.098833 10.177895 18.466988 # Og 
38 13 5 0.651200 30.098833 10.177895 17.306988 # Cg 
39 13 11 -0.325600 30.098833 10.177895 16.146988 # Og 
40 14 11 -0.325600 30.099833 10.179894 23.079988 # Og 
41 14 5 0.651200 30.099833 10.179894 21.919989 # Cg 
42 14 11 -0.325600 30.099833 10.179894 20.759989 # Og 
43 15 11 -0.325600 30.096001 10.205999 0.013000 # Og 
44 15 5 0.651200 30.100832 10.180895 26.532990 # Cg 
45 15 11 -0.325600 30.100832 10.180895 25.372990 # Og 
46 16 11 -0.325600 30.097002 10.207000 4.627000 # Og 
47 16 5 0.651200 30.097002 10.207000 3.467000 # Cg 
48 16 11 -0.325600 30.097002 10.207000 2.307000 # Og 
49 17 11 -0.325600 30.097002 10.209000 9.240000 # Og 
50 17 5 0.651200 30.097002 10.209000 8.080000 # Cg 
51 17 11 -0.325600 30.097002 10.209000 6.920000 # Og 
52 18 11 -0.325600 30.098001 10.209999 13.853000 # Og 
53 18 5 0.651200 30.098001 10.209999 12.693000 # Cg 
54 18 11 -0.325600 30.098001 10.209999 11.533000 # Og 
55 19 11 -0.325600 24.627832 19.651894 18.466988 # Og 
56 19 5 0.651200 24.627832 19.651894 17.306988 # Cg 
57 19 11 -0.325600 24.627832 19.651894 16.146988 # Og 
58 20 11 -0.325600 24.627832 19.652895 23.079988 # Og 
59 20 5 0.651200 24.627832 19.652895 21.919989 # Cg 
60 20 11 -0.325600 24.627832 19.652895 20.759989 # Og 
61 21 11 -0.325600 24.624001 19.678999 0.013000 # Og 
62 21 5 0.651200 24.628832 19.653894 26.532990 # Cg 
63 21 11 -0.325600 24.628832 19.653894 25.372990 # Og 
64 22 11 -0.325600 24.625002 19.681000 4.627000 # Og 
65 22 5 0.651200 24.625002 19.681000 3.467000 # Cg 
66 22 11 -0.325600 24.625002 19.681000 2.307000 # Og 
67 23 11 -0.325600 24.626001 19.681999 9.240000 # Og 
68 23 5 0.651200 24.626001 19.681999 8.080000 # Cg 
69 23 11 -0.325600 24.626001 19.681999 6.920000 # Og 
70 24 11 -0.325600 24.627001 19.684000 13.853000 # Og 
71 24 5 0.651200 24.627001 19.684000 12.693000 # Cg 
72 24 11 -0.325600 24.627001 19.684000 11.533000 # Og 
73 25 11 -0.325600 30.099220 29.124346 18.466988 # Og 
74 25 5 0.651200 30.099220 29.124346 17.306988 # Cg 
75 25 11 -0.325600 30.099220 29.124346 16.146988 # Og 
76 26 11 -0.325600 30.100220 29.126345 23.079988 # Og 
77 26 5 0.651200 30.100220 29.126345 21.919989 # Cg 
78 26 11 -0.325600 30.100220 29.126345 20.759989 # Og 
79 27 11 -0.325600 30.096388 29.152451 0.013000 # Og 
80 27 5 0.651200 30.101219 29.127344 26.532990 # Cg 
81 27 11 -0.325600 30.101219 29.127344 25.372990 # Og 
82 28 11 -0.325600 30.097387 29.154451 4.627000 # Og 
83 28 5 0.651200 30.097387 29.154451 3.467000 # Cg 
84 28 11 -0.325600 30.097387 29.154451 2.307000 # Og 
85 29 11 -0.325600 30.098387 29.155451 9.240000 # Og 
86 29 5 0.651200 30.098387 29.155451 8.080000 # Cg 
87 29 11 -0.325600 30.098387 29.155451 6.920000 # Og 
88 30 11 -0.325600 30.098387 29.156450 13.853000 # Og 
89 30 5 0.651200 30.098387 29.156450 12.693000 # Cg 
90 30 11 -0.325600 30.098387 29.156450 11.533000 # Og 
91 31 11 -0.325600 24.628220 38.598347 18.466988 # Og 
92 31 5 0.651200 24.628220 38.598347 17.306988 # Cg 
93 31 11 -0.325600 24.628220 38.598347 16.146988 # Og 
94 32 11 -0.325600 24.629219 38.599346 23.079988 # Og 
95 32 5 0.651200 24.629219 38.599346 21.919989 # Cg 
96 32 11 -0.325600 24.629219 38.599346 20.759989 # Og 
97 33 11 -0.325600 24.624388 38.626453 0.013000 # Og 
98 33 5 0.651200 24.629219 38.601349 26.532990 # Cg 
99 33 11 -0.325600 24.629219 38.601349 25.372990 # Og 
100 34 11 -0.325600 24.625387 38.627453 4.627000 # Og 
101 34 5 0.651200 24.625387 38.627453 3.467000 # Cg 
102 34 11 -0.325600 24.625387 38.627453 2.307000 # Og 
103 35 11 -0.325600 24.626387 38.628452 9.240000 # Og 
104 35 5 0.651200 24.626387 38.628452 8.080000 # Cg 
105 35 11 -0.325600 24.626387 38.628452 6.920000 # Og 
106 36 11 -0.325600 24.627388 38.630455 13.853000 # Og 
107 36 5 0.651200 24.627388 38.630455 12.693000 # Cg 
108 36 11 -0.325600 24.627388 38.630455 11.533000 # Og 
109 37 11 -0.325600 41.042831 10.177895 18.466988 # Og 
110 37 5 0.651200 41.042831 10.177895 17.306988 # Cg 
111 37 11 -0.325600 41.042831 10.177895 16.146988 # Og 
112 38 11 -0.325600 41.043835 10.179894 23.079988 # Og 
113 38 5 0.651200 41.043835 10.179894 21.919989 # Cg 
114 38 11 -0.325600 41.043835 10.179894 20.759989 # Og 
115 39 11 -0.325600 41.040001 10.205999 0.013000 # Og 
116 39 5 0.651200 41.044834 10.180895 26.532990 # Cg 
117 39 11 -0.325600 41.044834 10.180895 25.372990 # Og 
118 40 11 -0.325600 41.041000 10.207000 4.627000 # Og 
119 40 5 0.651200 41.041000 10.207000 3.467000 # Cg 
120 40 11 -0.325600 41.041000 10.207000 2.307000 # Og 
121 41 11 -0.325600 41.041000 10.209000 9.240000 # Og 
122 41 5 0.651200 41.041000 10.209000 8.080000 # Cg 
123 41 11 -0.325600 41.041000 10.209000 6.920000 # Og 
124 42 11 -0.325600 41.042000 10.209999 13.853000 # Og 
125 42 5 0.651200 41.042000 10.209999 12.693000 # Cg 
126 42 11 -0.325600 41.042000 10.209999 11.533000 # Og 
127 43 11 -0.325600 35.571835 19.651894 18.466988 # Og 
128 43 5 0.651200 35.571835 19.651894 17.306988 # Cg 
129 43 11 -0.325600 35.571835 19.651894 16.146988 # Og 
130 44 11 -0.325600 35.571835 19.652895 23.079988 # Og 
131 44 5 0.651200 35.571835 19.652895 21.919989 # Cg 
132 44 11 -0.325600 35.571835 19.652895 20.759989 # Og 
133 45 11 -0.325600 35.568001 19.678999 0.013000 # Og 
134 45 5 0.651200 35.572834 19.653894 26.532990 # Cg 
135 45 11 -0.325600 35.572834 19.653894 25.372990 # Og 
136 46 11 -0.325600 35.569000 19.681000 4.627000 # Og 
137 46 5 0.651200 35.569000 19.681000 3.467000 # Cg 
138 46 11 -0.325600 35.569000 19.681000 2.307000 # Og 
139 47 11 -0.325600 35.570000 19.681999 9.240000 # Og 
140 47 5 0.651200 35.570000 19.681999 8.080000 # Cg 
141 47 11 -0.325600 35.570000 19.681999 6.920000 # Og 
142 48 11 -0.325600 35.570999 19.684000 13.853000 # Og 
143 48 5 0.651200 35.570999 19.684000 12.693000 # Cg 
144 48 11 -0.325600 35.570999 19.684000 11.533000 # Og 
145 49 11 -0.325600 41.043221 29.124346 18.466988 # Og 
146 49 5 0.651200 41.043221 29.124346 17.306988 # Cg 
147 49 11 -0.325600 41.043221 29.124346 16.146988 # Og 
148 50 11 -0.325600 41.044220 29.126345 23.079988 # Og 
149 50 5 0.651200 41.044220 29.126345 21.919989 # Cg 
150 50 11 -0.325600 41.044220 29.126345 20.759989 # Og 
151 51 11 -0.325600 41.040386 29.152451 0.013000 # Og 
152 51 5 0.651200 41.045219 29.127344 26.532990 # Cg 
153 51 11 -0.325600 41.045219 29.127344 25.372990 # Og 
154 52 11 -0.325600 41.041389 29.154451 4.627000 # Og 
155 52 5 0.651200 41.041389 29.154451 3.467000 # Cg 
156 52 11 -0.325600 41.041389 29.154451 2.307000 # Og 
157 53 11 -0.325600 41.042389 29.155451 9.240000 # Og 
158 53 5 0.651200 41.042389 29.155451 8.080000 # Cg 
159 53 11 -0.325600 41.042389 29.155451 6.920000 # Og 
160 54 11 -0.325600 41.042389 29.156450 13.853000 # Og 
161 54 5 0.651200 41.042389 29.156450 12.693000 # Cg 
162 54 11 -0.325600 41.042389 29.156450 11.533000 # Og 
163 55 11 -0.325600 35.572220 38.598347 18.466988 # Og 
164 55 5 0.651200 35.572220 38.598347 17.306988 # Cg 
165 55 11 -0.325600 35.572220 38.598347 16.146988 # Og 
166 56 11 -0.325600 35.573219 38.599346 23.079988 # Og 
167 56 5 0.651200 35.573219 38.599346 21.919989 # Cg 
168 56 11 -0.325600 35.573219 38.599346 20.759989 # Og 
169 57 11 -0.325600 35.568386 38.626453 0.013000 # Og 
170 57 5 0.651200 35.573219 38.601349 26.532990 # Cg 
171 57 11 -0.325600 35.573219 38.601349 25.372990 # Og 
172 58 11 -0.325600 35.569389 38.627453 4.627000 # Og 
173 58 5 0.651200 35.569389 38.627453 3.467000 # Cg 
174 58 11 -0.325600 35.569389 38.627453 2.307000 # Og 
175 59 11 -0.325600 35.570389 38.628452 9.240000 # Og 
176 59 5 0.651200 35.570389 38.628452 8.080000 # Cg 
177 59 11 -0.325600 35.570389 38.628452 6.920000 # Og 
178 60 11 -0.325600 35.571388 38.630455 13.853000 # Og 
179 60 5 0.651200 35.571388 38.630455 12.693000 # Cg 
180 60 11 -0.325600 35.571388 38.630455 11.533000 # Og 
181 61 11 -0.325600 8.210833 10.177895 18.466988 # Og 
182 61 5 0.651200 8.210833 10.177895 17.306988 # Cg 
183 61 11 -0.325600 8.210833 10.177895 16.146988 # Og 
184 62 11 -0.325600 8.211832 10.179894 23.079988 # Og 
185 62 5 0.651200 8.211832 10.179894 21.919989 # Cg 
186 62 11 -0.325600 8.211832 10.179894 20.759989 # Og 
187 63 11 -0.325600 8.208000 10.205999 0.013000 # Og 
188 63 5 0.651200 8.212832 10.180895 26.532990 # Cg 
189 63 11 -0.325600 8.212832 10.180895 25.372990 # Og 
190 64 11 -0.325600 8.209000 10.207000 4.627000 # Og 
191 64 5 0.651200 8.209000 10.207000 3.467000 # Cg 
192 64 11 -0.325600 8.209000 10.207000 2.307000 # Og 
193 65 11 -0.325600 8.209000 10.209000 9.240000 # Og 
194 65 5 0.651200 8.209000 10.209000 8.080000 # Cg 
195 65 11 -0.325600 8.209000 10.209000 6.920000 # Og 
196 66 11 -0.325600 8.210000 10.209999 13.853000 # Og 
197 66 5 0.651200 8.210000 10.209999 12.693000 # Cg 
198 66 11 -0.325600 8.210000 10.209999 11.533000 # Og 
199 67 11 -0.325600 46.515835 19.651894 18.466988 # Og 
200 67 5 0.651200 46.515835 19.651894 17.306988 # Cg 
201 67 11 -0.325600 46.515835 19.651894 16.146988 # Og 
202 68 11 -0.325600 46.515835 19.652895 23.079988 # Og 
203 68 5 0.651200 46.515835 19.652895 21.919989 # Cg 
204 68 11 -0.325600 46.515835 19.652895 20.759989 # Og 
205 69 11 -0.325600 46.512001 19.678999 0.013000 # Og 
206 69 5 0.651200 46.516834 19.653894 26.532990 # Cg 
207 69 11 -0.325600 46.516834 19.653894 25.372990 # Og 
208 70 11 -0.325600 46.513000 19.681000 4.627000 # Og 
209 70 5 0.651200 46.513000 19.681000 3.467000 # Cg 
210 70 11 -0.325600 46.513000 19.681000 2.307000 # Og 
211 71 11 -0.325600 46.514000 19.681999 9.240000 # Og 
212 71 5 0.651200 46.514000 19.681999 8.080000 # Cg 
213 71 11 -0.325600 46.514000 19.681999 6.920000 # Og 
214 72 11 -0.325600 46.514999 19.684000 13.853000 # Og 
215 72 5 0.651200 46.514999 19.684000 12.693000 # Cg 
216 72 11 -0.325600 46.514999 19.684000 11.533000 # Og 
217 73 11 -0.325600 8.211218 29.124346 18.466988 # Og 
218 73 5 0.651200 8.211218 29.124346 17.306988 # Cg 
219 73 11 -0.325600 8.211218 29.124346 16.146988 # Og 
220 74 11 -0.325600 8.212217 29.126345 23.079988 # Og 
221 74 5 0.651200 8.212217 29.126345 21.919989 # Cg 
222 74 11 -0.325600 8.212217 29.126345 20.759989 # Og 
223 75 11 -0.325600 8.208385 29.152451 0.013000 # Og 
224 75 5 0.651200 8.213217 29.127344 26.532990 # Cg 
225 75 11 -0.325600 8.213217 29.127344 25.372990 # Og 
226 76 11 -0.325600 8.209387 29.154451 4.627000 # Og 
227 76 5 0.651200 8.209387 29.154451 3.467000 # Cg 
228 76 11 -0.325600 8.209387 29.154451 2.307000 # Og 
229 77 11 -0.325600 8.210386 29.155451 9.240000 # Og 
230 77 5 0.651200 8.210386 29.155451 8.080000 # Cg 
231 77 11 -0.325600 8.210386 29.155451 6.920000 # Og 
232 78 11 -0.325600 8.210386 29.156450 13.853000 # Og 
233 78 5 0.651200 8.210386 29.156450 12.693000 # Cg 
234 78 11 -0.325600 8.210386 29.156450 11.533000 # Og 
235 79 11 -0.325600 46.516220 38.598347 18.466988 # Og 
236 79 5 0.651200 46.516220 38.598347 17.306988 # Cg 
237 79 11 -0.325600 46.516220 38.598347 16.146988 # Og 
238 80 11 -0.325600 46.517220 38.599346 23.079988 # Og 
239 80 5 0.651200 46.517220 38.599346 21.919989 # Cg 
240 80 11 -0.325600 46.517220 38.599346 20.759989 # Og 
241 81 11 -0.325600 46.512386 38.626453 0.013000 # Og 
242 81 5 0.651200 46.517220 38.601349 26.532990 # Cg 
243 81 11 -0.325600 46.517220 38.601349 25.372990 # Og 
244 82 6 0.186000 23.398062 37.097843 22.712994 # H LIG
245 82 6 0.186000 28.529060 30.732845 18.235992 # H LIG
246 82 6 0.186000 28.505062 28.451845 24.192993 # H LIG
247 82 6 0.186000 27.286060 30.087845 20.400993 # H LIG
248 82 6 0.186000 10.296674 0.991393 21.867992 # H LIG
249 82 6 0.186000 30.210060 37.762844 22.837994 # H LIG
250 82 6 0.186000 31.421062 36.944843 18.100994 # H LIG
251 82 6 0.186000 21.333061 36.784843 19.557993 # H LIG
252 82 6 0.186000 23.297060 35.640846 20.527992 # H LIG
253 82 6 0.186000 42.357674 0.895393 18.805994 # H LIG
254 82 6 0.186000 32.281673 1.050393 17.348993 # H LIG
255 82 6 0.186000 34.243675 2.191393 23.295994 # H LIG
256 82 6 0.186000 39.514675 9.393394 19.663994 # H LIG
257 82 6 0.186000 34.349674 0.736393 21.112993 # H LIG
258 82 6 0.186000 39.535675 7.122394 18.690994 # H LIG
259 82 6 0.186000 41.148674 0.075392 20.986994 # H LIG
260 82 6 0.186000 21.234060 36.839844 21.959993 # H LIG
261 82 6 0.186000 38.199677 7.754394 23.422993 # H LIG
262 82 7 1.560000 26.851061 33.809845 18.408993 # Mg LIG
263 82 7 1.560000 28.410061 34.723843 23.022993 # Mg LIG
264 82 7 1.560000 26.833061 35.615845 20.716993 # Mg LIG
265 82 7 1.560000 37.779675 2.228392 23.105993 # Mg LIG
266 82 7 1.560000 37.793674 4.042393 18.494993 # Mg LIG
267 82 7 1.560000 39.353676 3.123393 20.800993 # Mg LIG
268 82 3 0.456000 27.957062 31.715845 23.336994 # Cc LIG
269 82 2 -0.314000 24.453060 36.095844 17.347994 # Cb LIG
270 82 4 -0.234000 23.337061 36.768845 23.750994 # Cd LIG
271 82 2 -0.314000 22.199060 37.042843 17.589993 # Cb LIG
272 82 4 -0.234000 28.233061 29.301846 23.563993 # Cd LIG
273 82 4 -0.234000 28.256062 30.573845 24.110992 # Cd LIG
274 82 1 0.900000 25.584061 35.841843 23.344994 # Ca LIG
275 82 3 0.456000 29.661060 36.736843 21.030994 # Cc LIG
276 82 2 -0.314000 27.621061 31.504845 21.958994 # Cb LIG
277 82 4 -0.234000 27.587061 30.197845 21.442993 # Cd LIG
278 82 2 -0.314000 27.901062 29.076845 22.209993 # Cb LIG
279 82 4 -0.234000 9.709674 0.311393 21.246994 # Cd LIG
280 82 4 -0.234000 30.488060 37.586845 21.796993 # Cd LIG
281 82 1 0.900000 27.282063 32.608845 21.033993 # Ca LIG
282 82 3 0.456000 24.463060 35.687843 18.721992 # Cc LIG
283 82 2 -0.314000 30.018061 36.539845 19.655994 # Cb LIG
284 82 4 -0.234000 31.168060 37.162846 19.138992 # Cd LIG
285 82 2 -0.314000 10.082674 0.115392 19.898994 # Cb LIG
286 82 4 -0.234000 22.216061 36.620846 18.936993 # Cd LIG
287 82 4 -0.234000 23.310061 35.971844 19.487993 # Cd LIG
288 82 1 0.900000 29.233061 35.692844 18.731995 # Ca LIG
289 82 3 0.456000 35.409676 2.154393 18.180992 # Cc LIG
290 82 2 -0.314000 40.959675 1.300393 24.167994 # Cb LIG
291 82 4 -0.234000 42.104675 0.678393 17.766994 # Cd LIG
292 82 2 -0.314000 21.022060 37.716843 23.926994 # Cb LIG
293 82 4 -0.234000 33.165676 1.216393 17.967995 # Cd LIG
294 82 4 -0.234000 34.256676 1.867393 17.416992 # Cd LIG
295 82 1 0.900000 40.176674 2.158393 18.171993 # Ca LIG
296 82 3 0.456000 38.909676 6.131393 20.491993 # Cc LIG
297 82 2 -0.314000 35.401676 1.746393 19.554993 # Cb LIG
298 82 4 -0.234000 34.286674 1.065393 20.074993 # Cd LIG
299 82 2 -0.314000 33.149673 0.795393 19.314995 # Cb LIG
300 82 4 -0.234000 39.214676 8.544393 20.281994 # Cd LIG
301 82 4 -0.234000 39.237675 7.274392 19.729994 # Cd LIG
302 82 1 0.900000 36.530674 1.999393 20.477993 # Ca LIG
303 82 3 0.456000 40.603676 1.105393 22.793993 # Cc LIG
304 82 2 -0.314000 38.556675 6.340393 21.865993 # Cb LIG
305 82 4 -0.234000 38.517673 7.647393 22.384995 # Cd LIG
306 82 2 -0.314000 38.849674 8.768394 21.626993 # Cb LIG
307 82 4 -0.234000 20.649061 37.521843 22.579994 # Cd LIG
308 82 4 -0.234000 41.427673 0.250393 22.027994 # Cd LIG
309 82 1 0.900000 38.215675 5.235394 22.788994 # Ca LIG
310 82 10 -0.903000 39.534676 1.678393 22.210993 # Oc LIG
311 82 8 -0.899000 38.339676 4.019393 22.360992 # Oa LIG
312 82 9 -0.752000 40.569675 2.373393 19.362993 # Ob LIG
313 82 10 -0.903000 38.953674 4.920393 19.907993 # Oc LIG
314 82 8 -0.899000 37.522675 2.714392 20.051994 # Oa LIG
315 82 9 -0.752000 37.831676 5.466393 23.979994 # Ob LIG
316 82 10 -0.903000 36.437675 2.796393 17.598993 # Oc LIG
317 82 8 -0.899000 39.062675 2.662392 17.744993 # Oa LIG
318 82 9 -0.752000 36.521675 1.549392 21.668993 # Ob LIG
319 82 10 -0.903000 25.493061 35.048843 19.304993 # Oc LIG
320 82 8 -0.899000 28.117062 35.192844 19.156994 # Oa LIG
321 82 9 -0.752000 25.573061 36.290844 22.153994 # Ob LIG
322 82 10 -0.903000 28.008060 32.928844 23.914993 # Oc LIG
323 82 8 -0.899000 26.579062 35.131844 23.770994 # Oa LIG
324 82 9 -0.752000 26.903061 32.376846 19.841993 # Ob LIG
325 82 10 -0.903000 28.589062 36.169846 21.611994 # Oc LIG
326 82 8 -0.899000 27.400061 33.824844 21.461994 # Oa LIG
327 82 9 -0.752000 29.626060 35.476845 17.539993 # Ob LIG
328 82 6 0.186000 23.394436 37.125042 1.953001 # H LIG
329 82 6 0.186000 28.530270 30.734938 25.155991 # H LIG
330 82 6 0.186000 28.501436 28.479042 3.433002 # H LIG
331 82 6 0.186000 27.287270 30.089937 27.320990 # H LIG
332 82 6 0.186000 10.293049 1.018591 1.108001 # H LIG
333 82 6 0.186000 30.206436 37.790043 2.078001 # H LIG
334 82 6 0.186000 31.422268 36.946938 25.020990 # H LIG
335 82 6 0.186000 21.334269 36.786938 26.477989 # H LIG
336 82 6 0.186000 23.298269 35.642937 27.447990 # H LIG
337 82 6 0.186000 42.358883 0.897485 25.725990 # H LIG
338 82 6 0.186000 32.282883 1.052485 24.268990 # H LIG
339 82 6 0.186000 34.240051 2.218591 2.536001 # H LIG
340 82 6 0.186000 39.515884 9.395486 26.583990 # H LIG
341 82 6 0.186000 34.346050 0.763591 0.353001 # H LIG
342 82 6 0.186000 39.536884 7.124486 25.610991 # H LIG
343 82 6 0.186000 41.145050 0.102591 0.227001 # H LIG
344 82 6 0.186000 21.230436 36.867043 1.200001 # H LIG
345 82 6 0.186000 38.196053 7.781591 2.663002 # H LIG
346 82 7 1.560000 26.852268 33.811935 25.328991 # Mg LIG
347 82 7 1.560000 28.406437 34.751041 2.263001 # Mg LIG
348 82 7 1.560000 26.834269 35.617935 27.636990 # Mg LIG
349 82 7 1.560000 37.776051 2.255590 2.346002 # Mg LIG
350 82 7 1.560000 37.794884 4.044485 25.414989 # Mg LIG
351 82 7 1.560000 39.350052 3.150591 0.041001 # Mg LIG
352 82 3 0.456000 27.953436 31.743042 2.577002 # Cc LIG
353 82 2 -0.314000 24.454269 36.097939 24.267990 # Cb LIG
354 82 4 -0.234000 23.333437 36.796043 2.991002 # Cd LIG
355 82 2 -0.314000 22.200268 37.044937 24.509991 # Cb LIG
356 82 4 -0.234000 28.229437 29.329042 2.804001 # Cd LIG
357 82 4 -0.234000 28.252438 30.601044 3.351001 # Cd LIG
358 82 1 0.900000 25.580437 35.869041 2.585001 # Ca LIG
359 82 3 0.456000 29.657436 36.764042 0.271001 # Cc LIG
360 82 2 -0.314000 27.617437 31.532043 1.199001 # Cb LIG
361 82 4 -0.234000 27.583437 30.225042 0.683002 # Cd LIG
362 82 2 -0.314000 27.897436 29.104042 1.450001 # Cb LIG
363 82 4 -0.234000 9.706049 0.338591 0.487001 # Cd LIG
364 82 4 -0.234000 30.484436 37.614044 1.037002 # Cd LIG
365 82 1 0.900000 27.278437 32.636044 0.274001 # Ca LIG
366 82 3 0.456000 24.464270 35.689938 25.641991 # Cc LIG
367 82 2 -0.314000 30.019268 36.541935 26.575991 # Cb LIG
368 82 4 -0.234000 31.169270 37.164936 26.058990 # Cd LIG
369 82 2 -0.314000 10.083882 0.117485 26.818991 # Cb LIG
370 82 4 -0.234000 22.217268 36.622936 25.856991 # Cd LIG
371 82 4 -0.234000 23.311268 35.973938 26.407990 # Cd LIG
372 82 1 0.900000 29.234268 35.694939 25.651991 # Ca LIG
373 82 3 0.456000 35.410881 2.156485 25.100990 # Cc LIG
374 82 2 -0.314000 40.956051 1.327591 3.408001 # Cb LIG
375 82 4 -0.234000 42.105881 0.680485 24.686991 # Cd LIG
376 82 2 -0.314000 21.018436 37.744041 3.167001 # Cb LIG
377 82 4 -0.234000 33.166882 1.218486 24.887991 # Cd LIG
378 82 4 -0.234000 34.257881 1.869486 24.336990 # Cd LIG
379 82 1 0.900000 40.177883 2.160485 25.091990 # Ca LIG
380 82 3 0.456000 38.910881 6.133486 27.411991 # Cc LIG
381 82 2 -0.314000 35.402882 1.748485 26.474991 # Cb LIG
382 82 4 -0.234000 34.287884 1.067486 26.994991 # Cd LIG
383 82 2 -0.314000 33.150883 0.797485 26.234991 # Cb LIG
384 82 4 -0.234000 39.215881 8.546485 27.201990 # Cd LIG
385 82 4 -0.234000 39.238884 7.276484 26.649990 # Cd LIG
386 82 1 0.900000 36.531883 2.001486 27.397991 # Ca LIG
387 82 3 0.456000 40.600052 1.132591 2.034001 # Cc LIG
388 82 2 -0.314000 38.553051 6.367591 1.106001 # Cb LIG
389 82 4 -0.234000 38.514050 7.674591 1.625001 # Cd LIG
390 82 2 -0.314000 38.846050 8.795591 0.867002 # Cb LIG
391 82 4 -0.234000 20.645437 37.549042 1.820002 # Cd LIG
392 82 4 -0.234000 41.424049 0.277591 1.268002 # Cd LIG
393 82 1 0.900000 38.212051 5.262591 2.029001 # Ca LIG
394 82 10 -0.903000 39.531052 1.705591 1.451001 # Oc LIG
395 82 8 -0.899000 38.336052 4.046591 1.601001 # Oa LIG
396 82 9 -0.752000 40.570881 2.375485 26.282990 # Ob LIG
397 82 10 -0.903000 38.954884 4.922485 26.827990 # Oc LIG
398 82 8 -0.899000 37.523884 2.716485 26.971991 # Oa LIG
399 82 9 -0.752000 37.828049 5.493591 3.220001 # Ob LIG
400 82 10 -0.903000 36.438881 2.798486 24.518990 # Oc LIG
401 82 8 -0.899000 39.063881 2.664485 24.664989 # Oa LIG
402 82 9 -0.752000 36.518051 1.576591 0.909001 # Ob LIG
403 82 10 -0.903000 25.494268 35.050938 26.224991 # Oc LIG
404 82 8 -0.899000 28.118269 35.194939 26.076990 # Oa LIG
405 82 9 -0.752000 25.569437 36.318043 1.394001 # Ob LIG
406 82 10 -0.903000 28.004436 32.956043 3.155001 # Oc LIG
407 82 8 -0.899000 26.575438 35.159042 3.011002 # Oa LIG
408 82 9 -0.752000 26.904268 32.378937 26.761990 # Ob LIG
409 82 10 -0.903000 28.585436 36.197044 0.852001 # Oc LIG
410 82 8 -0.899000 27.396437 33.852043 0.702002 # Oa LIG
411 82 9 -0.752000 29.627270 35.478935 24.459990 # Ob LIG
412 82 6 0.186000 23.395645 37.127136 8.872999 # H LIG
413 82 6 0.186000 28.526646 30.762136 4.395998 # H LIG
414 82 6 0.186000 28.502644 28.481136 10.352999 # H LIG
415 82 6 0.186000 27.283646 30.117136 6.560999 # H LIG
416 82 6 0.186000 10.294257 1.020684 8.027998 # H LIG
417 82 6 0.186000 30.207645 37.792137 8.997999 # H LIG
418 82 6 0.186000 31.418644 36.974136 4.260999 # H LIG
419 82 6 0.186000 21.330645 36.814137 5.717999 # H LIG
420 82 6 0.186000 23.294643 35.670135 6.687999 # H LIG
421 82 6 0.186000 42.355259 0.924685 4.965999 # H LIG
422 82 6 0.186000 32.279259 1.079684 3.508999 # H LIG
423 82 6 0.186000 34.241257 2.220684 9.455998 # H LIG
424 82 6 0.186000 39.512260 9.422685 5.823998 # H LIG
425 82 6 0.186000 34.347260 0.765684 7.272999 # H LIG
426 82 6 0.186000 39.533257 7.151685 4.850999 # H LIG
427 82 6 0.186000 41.146259 0.104684 7.146998 # H LIG
428 82 6 0.186000 21.231644 36.869137 8.119999 # H LIG
429 82 6 0.186000 38.197258 7.783685 9.582998 # H LIG
430 82 7 1.560000 26.848644 33.839134 4.568998 # Mg LIG
431 82 7 1.560000 28.407644 34.753136 9.182999 # Mg LIG
432 82 7 1.560000 26.830645 35.645134 6.876999 # Mg LIG
433 82 7 1.560000 37.777260 2.257684 9.265999 # Mg LIG
434 82 7 1.560000 37.791260 4.071684 4.654999 # Mg LIG
435 82 7 1.560000 39.351257 3.152684 6.960999 # Mg LIG
436 82 3 0.456000 27.954643 31.745136 9.496999 # Cc LIG
437 82 2 -0.314000 24.450645 36.125137 3.507999 # Cb LIG
438 82 4 -0.234000 23.334644 36.798134 9.910999 # Cd LIG
439 82 2 -0.314000 22.196644 37.072136 3.749999 # Cb LIG
440 82 4 -0.234000 28.230644 29.331135 9.723999 # Cd LIG
441 82 4 -0.234000 28.253645 30.603136 10.270998 # Cd LIG
442 82 1 0.900000 25.581644 35.871136 9.504999 # Ca LIG
443 82 3 0.456000 29.658646 36.766136 7.190999 # Cc LIG
444 82 2 -0.314000 27.618645 31.534136 8.118999 # Cb LIG
445 82 4 -0.234000 27.584644 30.227135 7.602999 # Cd LIG
446 82 2 -0.314000 27.898643 29.106136 8.369999 # Cb LIG
447 82 4 -0.234000 9.707257 0.340684 7.406999 # Cd LIG
448 82 4 -0.234000 30.485645 37.616135 7.956999 # Cd LIG
449 82 1 0.900000 27.279644 32.638138 7.193998 # Ca LIG
450 82 3 0.456000 24.460644 35.717136 4.881999 # Cc LIG
451 82 2 -0.314000 30.015644 36.569138 5.815999 # Cb LIG
452 82 4 -0.234000 31.165646 37.192135 5.298999 # Cd LIG
453 82 2 -0.314000 10.080257 0.144684 6.058999 # Cb LIG
454 82 4 -0.234000 22.213644 36.650135 5.096999 # Cd LIG
455 82 4 -0.234000 23.307644 36.001137 5.647999 # Cd LIG
456 82 1 0.900000 29.230644 35.722137 4.891999 # Ca LIG
457 82 3 0.456000 35.407257 2.183684 4.340999 # Cc LIG
458 82 2 -0.314000 40.957260 1.329684 10.327999 # Cb LIG
459 82 4 -0.234000 42.102257 0.707685 3.926999 # Cd LIG
460 82 2 -0.314000 21.019646 37.746136 10.086998 # Cb LIG
461 82 4 -0.234000 33.163258 1.245685 4.127998 # Cd LIG
462 82 4 -0.234000 34.254257 1.896685 3.576999 # Cd LIG
463 82 1 0.900000 40.174259 2.187684 4.331999 # Ca LIG
464 82 3 0.456000 38.907257 6.160685 6.651999 # Cc LIG
465 82 2 -0.314000 35.399258 1.775684 5.714999 # Cb LIG
466 82 4 -0.234000 34.284256 1.094685 6.234999 # Cd LIG
467 82 2 -0.314000 33.147259 0.824684 5.474998 # Cb LIG
468 82 4 -0.234000 39.212257 8.573684 6.441998 # Cd LIG
469 82 4 -0.234000 39.235260 7.303683 5.889998 # Cd LIG
470 82 1 0.900000 36.528259 2.028685 6.637999 # Ca LIG
471 82 3 0.456000 40.601257 1.134685 8.953999 # Cc LIG
472 82 2 -0.314000 38.554260 6.369684 8.025999 # Cb LIG
473 82 4 -0.234000 38.515259 7.676684 8.544998 # Cd LIG
474 82 2 -0.314000 38.847260 8.797685 7.786999 # Cb LIG
475 82 4 -0.234000 20.646645 37.551136 8.739999 # Cd LIG
476 82 4 -0.234000 41.425259 0.279684 8.187999 # Cd LIG
477 82 1 0.900000 38.213257 5.264685 8.948998 # Ca LIG
478 82 10 -0.903000 39.532257 1.707685 8.370998 # Oc LIG
479 82 8 -0.899000 38.337257 4.048684 8.520998 # Oa LIG
480 82 9 -0.752000 40.567257 2.402684 5.522999 # Ob LIG
481 82 10 -0.903000 38.951260 4.949684 6.067999 # Oc LIG
482 82 8 -0.899000 37.520260 2.743684 6.211999 # Oa LIG
483 82 9 -0.752000 37.829258 5.495685 10.139998 # Ob LIG
484 82 10 -0.903000 36.435257 2.825685 3.758999 # Oc LIG
485 82 8 -0.899000 39.060257 2.691684 3.904999 # Oa LIG
486 82 9 -0.752000 36.519257 1.578684 7.828999 # Ob LIG
487 82 10 -0.903000 25.490644 35.078136 5.464999 # Oc LIG
488 82 8 -0.899000 28.114643 35.222137 5.316998 # Oa LIG
489 82 9 -0.752000 25.570644 36.320137 8.313999 # Ob LIG
490 82 10 -0.903000 28.005646 32.958138 10.074999 # Oc LIG
491 82 8 -0.899000 26.576645 35.161137 9.930999 # Oa LIG
492 82 9 -0.752000 26.900644 32.406136 6.001999 # Ob LIG
493 82 10 -0.903000 28.586643 36.199135 7.771998 # Oc LIG
494 82 8 -0.899000 27.397644 33.854137 7.621999 # Oa LIG
495 82 9 -0.752000 29.623646 35.506134 3.699999 # Ob LIG
496 82 6 0.186000 23.396852 37.129227 15.792995 # H LIG
497 82 6 0.186000 28.527853 30.764229 11.315995 # H LIG
498 82 6 0.186000 28.503853 28.483229 17.272995 # H LIG
499 82 6 0.186000 27.284853 30.119228 13.480995 # H LIG
500 82 6 0.186000 10.295465 1.022777 14.947995 # H LIG
501 82 6 0.186000 30.208853 37.794228 15.917995 # H LIG
502 82 6 0.186000 31.419853 36.976227 11.180995 # H LIG
503 82 6 0.186000 21.331852 36.816227 12.637995 # H LIG
504 82 6 0.186000 23.295853 35.672230 13.607995 # H LIG
505 82 6 0.186000 42.356468 0.926777 11.885996 # H LIG
506 82 6 0.186000 32.280464 1.081777 10.428995 # H LIG
507 82 6 0.186000 34.242466 2.222776 16.375996 # H LIG
508 82 6 0.186000 39.513466 9.424777 12.743996 # H LIG
509 82 6 0.186000 34.348465 0.767776 14.192995 # H LIG
510 82 6 0.186000 39.534466 7.153777 11.770995 # H LIG
511 82 6 0.186000 41.147469 0.106776 14.066996 # H LIG
512 82 6 0.186000 21.232853 36.871227 15.039995 # H LIG
513 82 6 0.186000 38.198467 7.785777 16.502995 # H LIG
514 82 7 1.560000 26.849854 33.841228 11.488996 # Mg LIG
515 82 7 1.560000 28.408852 34.755226 16.102995 # Mg LIG
516 82 7 1.560000 26.831852 35.647228 13.796995 # Mg LIG
517 82 7 1.560000 37.778465 2.259776 16.185995 # Mg LIG
518 82 7 1.560000 37.792465 4.073776 11.574995 # Mg LIG
519 82 7 1.560000 39.352467 3.154777 13.880995 # Mg LIG
520 82 3 0.456000 27.955853 31.747229 16.416996 # Cc LIG
521 82 2 -0.314000 24.451853 36.127228 10.427996 # Cb LIG
522 82 4 -0.234000 23.335854 36.800228 16.830996 # Cd LIG
523 82 2 -0.314000 22.197853 37.074226 10.669995 # Cb LIG
524 82 4 -0.234000 28.231853 29.333229 16.643995 # Cd LIG
525 82 4 -0.234000 28.254852 30.605228 17.190994 # Cd LIG
526 82 1 0.900000 25.582851 35.873230 16.424995 # Ca LIG
527 82 3 0.456000 29.659853 36.768227 14.110995 # Cc LIG
528 82 2 -0.314000 27.619854 31.536228 15.038996 # Cb LIG
529 82 4 -0.234000 27.585854 30.229229 14.522995 # Cd LIG