LAMMPS data file. CGCMM style. atom_style full generated by VMD/TopoTools v1.5 on Sun Mar 05 19:09:54 PST 2017
 2643 atoms
 0 bonds
 0 angles
 0 dihedrals
 0 impropers
 10 atom types
 0 bond types
 0 angle types
 0 dihedral types
 0 improper types
 0.451838 52.642840  xlo xhi
 0.325101 45.523500  ylo yhi
 -0.407500 27.119741  zlo zhi

# Pair Coeffs
#
# 1  CH4
# 2  Ca
# 3  Cb
# 4  Cc
# 5  Cd
# 6  H
# 7  Oa
# 8  Ob
# 9  Oc
# 10  Zn

 Masses

 1 16.040001 # CH4
 2 12.011000 # Ca
 3 12.011000 # Cb
 4 12.011000 # Cc
 5 12.011000 # Cd
 6 1.008000 # H
 7 15.999000 # Oa
 8 15.999000 # Ob
 9 15.999000 # Oc
 10 65.379997 # Zn

 Atoms

1 1 1 0.000000 52.190678 45.197601 14.822001 # CH4 
2 1 1 0.000000 52.190678 45.197601 16.940001 # CH4 
3 1 1 0.000000 52.190678 45.197601 19.056999 # CH4 
4 1 1 0.000000 52.190678 45.197601 21.174999 # CH4 
5 1 1 0.000000 52.190678 45.197601 23.292000 # CH4 
6 1 1 0.000000 52.190678 45.197601 25.410000 # CH4 
7 1 1 0.000000 52.190678 45.197601 0.000000 # CH4 
8 1 1 0.000000 52.190678 45.197601 2.117000 # CH4 
9 1 1 0.000000 52.190678 45.197601 4.235000 # CH4 
10 1 1 0.000000 52.190678 45.197601 6.352000 # CH4 
11 1 1 0.000000 52.190678 45.197601 8.470000 # CH4 
12 1 1 0.000000 52.190678 45.197601 10.587000 # CH4 
13 1 1 0.000000 52.190678 45.197601 12.705000 # CH4 
14 1 1 0.000000 52.190678 22.599600 14.822001 # CH4 
15 1 1 0.000000 52.190678 22.599600 16.940001 # CH4 
16 1 1 0.000000 52.190678 22.599600 19.056999 # CH4 
17 1 1 0.000000 52.190678 22.599600 21.174999 # CH4 
18 1 1 0.000000 52.190678 22.599600 23.292000 # CH4 
19 1 1 0.000000 52.190678 22.599600 25.410000 # CH4 
20 1 1 0.000000 52.190678 22.599600 0.000000 # CH4 
21 1 1 0.000000 52.190678 22.599600 2.117000 # CH4 
22 1 1 0.000000 52.190678 22.599600 4.235000 # CH4 
23 1 1 0.000000 52.190678 22.599600 6.352000 # CH4 
24 1 1 0.000000 52.190678 22.599600 8.470000 # CH4 
25 1 1 0.000000 52.190678 22.599600 10.587000 # CH4 
26 1 1 0.000000 52.190678 22.599600 12.705000 # CH4 
27 1 1 0.000000 26.095676 45.197601 14.822001 # CH4 
28 1 1 0.000000 26.095676 45.197601 16.940001 # CH4 
29 1 1 0.000000 26.095676 45.197601 19.056999 # CH4 
30 1 1 0.000000 26.095676 45.197601 21.174999 # CH4 
31 1 1 0.000000 26.095676 45.197601 23.292000 # CH4 
32 1 1 0.000000 26.095676 45.197601 25.410000 # CH4 
33 1 1 0.000000 26.095676 45.197601 0.000000 # CH4 
34 1 1 0.000000 26.095676 45.197601 2.117000 # CH4 
35 1 1 0.000000 26.095676 45.197601 4.235000 # CH4 
36 1 1 0.000000 26.095676 45.197601 6.352000 # CH4 
37 1 1 0.000000 26.095676 45.197601 8.470000 # CH4 
38 1 1 0.000000 26.095676 45.197601 10.587000 # CH4 
39 1 1 0.000000 26.095676 45.197601 12.705000 # CH4 
40 1 1 0.000000 26.095676 22.599600 14.822001 # CH4 
41 1 1 0.000000 26.095676 22.599600 16.940001 # CH4 
42 1 1 0.000000 26.095676 22.599600 19.056999 # CH4 
43 1 1 0.000000 26.095676 22.599600 21.174999 # CH4 
44 1 1 0.000000 26.095676 22.599600 23.292000 # CH4 
45 1 1 0.000000 26.095676 22.599600 25.410000 # CH4 
46 1 1 0.000000 26.095676 22.599600 0.000000 # CH4 
47 1 1 0.000000 26.095676 22.599600 2.117000 # CH4 
48 1 1 0.000000 26.095676 22.599600 4.235000 # CH4 
49 1 1 0.000000 26.095676 22.599600 6.352000 # CH4 
50 1 1 0.000000 26.095676 22.599600 8.470000 # CH4 
51 1 1 0.000000 26.095676 22.599600 10.587000 # CH4 
52 1 10 0.000000 5.331000 7.994000 21.569241 # Zn LIG
53 2 10 0.000000 18.378000 30.594000 21.569241 # Zn LIG
54 3 10 0.000000 31.426001 7.994000 21.569241 # Zn LIG
55 4 10 0.000000 44.473999 30.594000 21.569241 # Zn LIG
56 5 2 0.000000 5.724000 9.170000 18.988241 # Ca LIG
57 6 2 0.000000 18.771999 31.768999 18.988241 # Ca LIG
58 7 2 0.000000 31.819000 9.170000 18.988241 # Ca LIG
59 8 2 0.000000 44.867001 31.768999 18.988241 # Ca LIG
60 9 3 0.000000 6.104000 10.244000 18.040241 # Cb LIG
61 10 3 0.000000 19.150999 32.842999 18.040241 # Cb LIG
62 11 3 0.000000 32.199001 10.244000 18.040241 # Cb LIG
63 12 3 0.000000 45.247002 32.842999 18.040241 # Cb LIG
64 9 5 0.000000 6.937000 11.262000 18.520241 # Cd LIG
65 10 5 0.000000 19.983999 33.861000 18.520241 # Cd LIG
66 11 5 0.000000 33.032001 11.262000 18.520241 # Cd LIG
67 12 5 0.000000 46.080002 33.861000 18.520241 # Cd LIG
68 9 6 0.000000 7.258000 11.221000 19.558241 # H LIG
69 10 6 0.000000 20.306000 33.820000 19.558241 # H LIG
70 11 6 0.000000 33.353001 11.221000 19.558241 # H LIG
71 12 6 0.000000 46.401001 33.820000 19.558241 # H LIG
72 5 8 0.000000 6.191000 9.168000 20.176241 # Ob LIG
73 6 8 0.000000 19.238001 31.767000 20.176241 # Ob LIG
74 7 8 0.000000 32.285999 9.168000 20.176241 # Ob LIG
75 8 8 0.000000 45.334000 31.767000 20.176241 # Ob LIG
76 5 7 0.000000 4.915000 8.263000 18.567242 # Oa LIG
77 6 7 0.000000 17.962999 30.862000 18.567242 # Oa LIG
78 7 7 0.000000 31.010000 8.263000 18.567242 # Oa LIG
79 8 7 0.000000 44.057999 30.862000 18.567242 # Oa LIG
80 9 9 0.000000 8.191000 13.251000 18.306240 # Oc LIG
81 10 9 0.000000 21.238001 35.849998 18.306240 # Oc LIG
82 11 9 0.000000 34.285999 13.251000 18.306240 # Oc LIG
83 12 9 0.000000 47.334000 35.849998 18.306240 # Oc LIG
84 5 10 0.000000 4.258000 6.452000 19.275242 # Zn LIG
85 6 10 0.000000 17.306000 29.052000 19.275242 # Zn LIG
86 7 10 0.000000 30.353001 6.452000 19.275242 # Zn LIG
87 8 10 0.000000 43.401001 29.052000 19.275242 # Zn LIG
88 1 10 0.000000 3.459000 8.152000 23.863241 # Zn LIG
89 2 10 0.000000 16.507000 30.750999 23.863241 # Zn LIG
90 3 10 0.000000 29.554001 8.152000 23.863241 # Zn LIG
91 4 10 0.000000 42.602001 30.750999 23.863241 # Zn LIG
92 13 10 0.000000 7.717000 14.605000 19.721241 # Zn LIG
93 14 10 0.000000 20.764999 37.203999 19.721241 # Zn LIG
94 15 10 0.000000 33.812000 14.605000 19.721241 # Zn LIG
95 16 10 0.000000 46.860001 37.203999 19.721241 # Zn LIG
96 1 7 0.000000 4.698000 6.678000 23.155241 # Oa LIG
97 2 7 0.000000 17.746000 29.277000 23.155241 # Oa LIG
98 3 7 0.000000 30.794001 6.678000 23.155241 # Oa LIG
99 4 7 0.000000 43.841000 29.277000 23.155241 # Oa LIG
100 1 7 0.000000 3.434000 7.658000 20.861240 # Oa LIG
101 2 7 0.000000 16.482000 30.257000 20.861240 # Oa LIG
102 3 7 0.000000 29.530001 7.658000 20.861240 # Oa LIG
103 4 7 0.000000 42.577000 30.257000 20.861240 # Oa LIG
104 17 9 0.000000 4.857000 9.348000 22.984241 # Oc LIG
105 18 9 0.000000 17.905001 31.947001 22.984241 # Oc LIG
106 19 9 0.000000 30.952000 9.348000 22.984241 # Oc LIG
107 20 9 0.000000 44.000000 31.947001 22.984241 # Oc LIG
108 21 9 0.000000 5.667000 6.186000 20.690241 # Oc LIG
109 22 9 0.000000 18.715000 28.785000 20.690241 # Oc LIG
110 23 9 0.000000 31.763000 6.186000 20.690241 # Oc LIG
111 24 9 0.000000 44.810001 28.785000 20.690241 # Oc LIG
112 17 4 0.000000 5.670000 10.272000 23.559240 # Cc LIG
113 18 4 0.000000 18.718000 32.870998 23.559240 # Cc LIG
114 19 4 0.000000 31.764999 10.272000 23.559240 # Cc LIG
115 20 4 0.000000 44.813000 32.870998 23.559240 # Cc LIG
116 25 2 0.000000 7.324000 13.429000 22.302240 # Ca LIG
117 26 2 0.000000 20.371000 36.028000 22.302240 # Ca LIG
118 27 2 0.000000 33.418999 13.429000 22.302240 # Ca LIG
119 28 2 0.000000 46.466999 36.028000 22.302240 # Ca LIG
120 17 3 0.000000 6.944000 12.355000 23.250240 # Cb LIG
121 18 3 0.000000 19.992001 34.953999 23.250240 # Cb LIG
122 19 3 0.000000 33.039001 12.355000 23.250240 # Cb LIG
123 20 3 0.000000 46.087002 34.953999 23.250240 # Cb LIG
124 9 4 0.000000 7.378000 12.327000 17.730240 # Cc LIG
125 10 4 0.000000 20.424999 34.925999 17.730240 # Cc LIG
126 11 4 0.000000 33.473000 12.327000 17.730240 # Cc LIG
127 12 4 0.000000 46.521000 34.925999 17.730240 # Cc LIG
128 17 5 0.000000 6.111000 11.337000 22.770241 # Cd LIG
129 18 5 0.000000 19.159000 33.936001 22.770241 # Cd LIG
130 19 5 0.000000 32.206001 11.337000 22.770241 # Cd LIG
131 20 5 0.000000 45.254002 33.936001 22.770241 # Cd LIG
132 17 6 0.000000 5.790000 11.379000 21.732241 # H LIG
133 18 6 0.000000 18.837000 33.978001 21.732241 # H LIG
134 19 6 0.000000 31.885000 11.379000 21.732241 # H LIG
135 20 6 0.000000 44.932999 33.978001 21.732241 # H LIG
136 25 8 0.000000 6.857000 13.431000 21.113241 # Ob LIG
137 26 8 0.000000 19.905001 36.029999 21.113241 # Ob LIG
138 27 8 0.000000 32.952000 13.431000 21.113241 # Ob LIG
139 28 8 0.000000 46.000000 36.029999 21.113241 # Ob LIG
140 25 7 0.000000 8.133000 14.336000 22.723240 # Oa LIG
141 26 7 0.000000 21.180000 36.936001 22.723240 # Oa LIG
142 27 7 0.000000 34.228001 14.336000 22.723240 # Oa LIG
143 28 7 0.000000 47.276001 36.936001 22.723240 # Oa LIG
144 25 10 0.000000 8.790000 16.146999 22.015240 # Zn LIG
145 26 10 0.000000 21.837000 38.745998 22.015240 # Zn LIG
146 27 10 0.000000 34.884998 16.146999 22.015240 # Zn LIG
147 28 10 0.000000 47.932999 38.745998 22.015240 # Zn LIG
148 28 10 0.000000 9.589000 14.447000 17.427240 # Zn LIG
149 28 10 0.000000 22.636000 37.046001 17.427240 # Zn LIG
150 28 10 0.000000 35.683998 14.447000 17.427240 # Zn LIG
151 28 10 0.000000 48.731998 37.046001 17.427240 # Zn LIG
152 28 7 0.000000 8.349000 15.921000 18.135241 # Oa LIG
153 28 7 0.000000 21.396999 38.520000 18.135241 # Oa LIG
154 28 7 0.000000 34.445000 15.921000 18.135241 # Oa LIG
155 28 7 0.000000 47.492001 38.520000 18.135241 # Oa LIG
156 13 7 0.000000 9.613000 14.941000 20.429241 # Oa LIG
157 14 7 0.000000 22.660999 37.540001 20.429241 # Oa LIG
158 15 7 0.000000 35.709000 14.941000 20.429241 # Oa LIG
159 16 7 0.000000 48.756001 37.540001 20.429241 # Oa LIG
160 28 9 0.000000 7.380000 16.413000 20.600241 # Oc LIG
161 28 9 0.000000 20.427999 39.013000 20.600241 # Oc LIG
162 28 9 0.000000 33.476002 16.413000 20.600241 # Oc LIG
163 28 9 0.000000 46.522999 39.013000 20.600241 # Oc LIG
164 28 10 0.000000 8.790000 31.212999 19.721241 # Zn LIG
165 28 10 0.000000 21.837000 8.614000 19.721241 # Zn LIG
166 28 10 0.000000 34.884998 31.212999 19.721241 # Zn LIG
167 28 10 0.000000 47.932999 8.614000 19.721241 # Zn LIG
168 28 10 0.000000 9.589000 29.513000 22.015240 # Zn LIG
169 28 10 0.000000 22.636000 6.914000 22.015240 # Zn LIG
170 28 10 0.000000 35.683998 29.513000 22.015240 # Zn LIG
171 28 10 0.000000 48.731998 6.914000 22.015240 # Zn LIG
172 28 7 0.000000 9.613000 30.007000 18.135241 # Oa LIG
173 28 7 0.000000 22.660999 7.408000 18.135241 # Oa LIG
174 28 7 0.000000 35.709000 30.007000 18.135241 # Oa LIG
175 28 7 0.000000 48.756001 7.408000 18.135241 # Oa LIG
176 28 7 0.000000 8.349000 30.987000 22.723240 # Oa LIG
177 28 7 0.000000 21.396999 8.388000 22.723240 # Oa LIG
178 28 7 0.000000 34.445000 30.987000 22.723240 # Oa LIG
179 28 7 0.000000 47.492001 8.388000 22.723240 # Oa LIG
180 28 7 0.000000 4.698000 21.743999 20.861240 # Oa LIG
181 28 7 0.000000 17.746000 44.342999 20.861240 # Oa LIG
182 28 7 0.000000 30.794001 21.743999 20.861240 # Oa LIG
183 28 7 0.000000 43.841000 44.342999 20.861240 # Oa LIG
184 28 9 0.000000 5.667000 21.252001 18.396240 # Oc LIG
185 28 9 0.000000 18.715000 43.851002 18.396240 # Oc LIG
186 28 9 0.000000 31.763000 21.252001 18.396240 # Oc LIG
187 28 9 0.000000 44.810001 43.851002 18.396240 # Oc LIG
188 28 10 0.000000 4.258000 21.518000 23.863241 # Zn LIG
189 29 10 0.000000 17.306000 44.118000 23.863241 # Zn LIG
190 28 10 0.000000 30.353001 21.518000 23.863241 # Zn LIG
191 30 10 0.000000 43.401001 44.118000 23.863241 # Zn LIG
192 31 10 0.000000 8.790000 1.081000 17.427240 # Zn LIG
193 28 10 0.000000 21.837000 23.680000 17.427240 # Zn LIG
194 32 10 0.000000 34.884998 1.081000 17.427240 # Zn LIG
195 28 10 0.000000 47.932999 23.680000 17.427240 # Zn LIG
196 28 7 0.000000 8.349000 0.855000 20.429241 # Oa LIG
197 28 7 0.000000 21.396999 23.454000 20.429241 # Oa LIG
198 28 7 0.000000 34.445000 0.855000 20.429241 # Oa LIG
199 28 7 0.000000 47.492001 23.454000 20.429241 # Oa LIG
200 28 9 0.000000 7.380000 1.347000 22.894241 # Oc LIG
201 28 9 0.000000 20.427999 23.947001 22.894241 # Oc LIG
202 28 9 0.000000 33.476002 1.347000 22.894241 # Oc LIG
203 28 9 0.000000 46.522999 23.947001 22.894241 # Oc LIG
204 28 9 0.000000 4.857000 39.480000 18.396240 # Oc LIG
205 28 9 0.000000 17.905001 16.881001 18.396240 # Oc LIG
206 28 9 0.000000 30.952999 39.480000 18.396240 # Oc LIG
207 28 9 0.000000 44.000000 16.881001 18.396240 # Oc LIG
208 28 10 0.000000 5.331000 38.126999 23.863241 # Zn LIG
209 28 10 0.000000 18.378000 15.527000 23.863241 # Zn LIG
210 28 10 0.000000 31.426001 38.126999 23.863241 # Zn LIG
211 28 10 0.000000 44.473999 15.527000 23.863241 # Zn LIG
212 28 2 0.000000 5.724000 39.301998 21.282242 # Ca LIG
213 28 2 0.000000 18.771999 16.702999 21.282242 # Ca LIG
214 28 2 0.000000 31.819000 39.301998 21.282242 # Ca LIG
215 28 2 0.000000 44.867001 16.702999 21.282242 # Ca LIG
216 28 3 0.000000 6.104000 40.375999 20.334240 # Cb LIG
217 28 3 0.000000 19.150999 17.777000 20.334240 # Cb LIG
218 28 3 0.000000 32.199001 40.375999 20.334240 # Cb LIG
219 28 3 0.000000 45.247002 17.777000 20.334240 # Cb LIG
220 28 4 0.000000 5.670000 40.403999 18.972240 # Cc LIG
221 28 4 0.000000 18.718000 17.805000 18.972240 # Cc LIG
222 28 4 0.000000 31.764999 40.403999 18.972240 # Cc LIG
223 28 4 0.000000 44.813000 17.805000 18.972240 # Cc LIG
224 28 5 0.000000 6.937000 41.394001 20.814240 # Cd LIG
225 28 5 0.000000 19.983999 18.795000 20.814240 # Cd LIG
226 28 5 0.000000 33.032001 41.394001 20.814240 # Cd LIG
227 28 5 0.000000 46.080002 18.795000 20.814240 # Cd LIG
228 28 6 0.000000 7.258000 41.353001 21.852242 # H LIG
229 28 6 0.000000 20.306000 18.754000 21.852242 # H LIG
230 28 6 0.000000 33.353001 41.353001 21.852242 # H LIG
231 28 6 0.000000 46.401001 18.754000 21.852242 # H LIG
232 28 8 0.000000 6.191000 39.299999 22.470242 # Ob LIG
233 28 8 0.000000 19.238001 16.701000 22.470242 # Ob LIG
234 28 8 0.000000 32.285999 39.299999 22.470242 # Ob LIG
235 28 8 0.000000 45.334000 16.701000 22.470242 # Ob LIG
236 28 7 0.000000 4.915000 38.395000 20.861240 # Oa LIG
237 28 7 0.000000 17.962999 15.796000 20.861240 # Oa LIG
238 28 7 0.000000 31.010000 38.395000 20.861240 # Oa LIG
239 28 7 0.000000 44.057999 15.796000 20.861240 # Oa LIG
240 28 3 0.000000 6.944000 42.487000 18.662241 # Cb LIG
241 28 3 0.000000 19.992001 19.888000 18.662241 # Cb LIG
242 28 3 0.000000 33.039001 42.487000 18.662241 # Cb LIG
243 28 3 0.000000 46.087002 19.888000 18.662241 # Cb LIG
244 28 4 0.000000 7.378000 42.459000 20.024240 # Cc LIG
245 28 4 0.000000 20.424999 19.860001 20.024240 # Cc LIG
246 28 4 0.000000 33.473000 42.459000 20.024240 # Cc LIG
247 28 4 0.000000 46.521000 19.860001 20.024240 # Cc LIG
248 28 5 0.000000 6.111000 41.469002 18.182240 # Cd LIG
249 28 5 0.000000 19.159000 18.870001 18.182240 # Cd LIG
250 28 5 0.000000 32.206001 41.469002 18.182240 # Cd LIG
251 28 5 0.000000 45.254002 18.870001 18.182240 # Cd LIG
252 28 7 0.000000 8.133000 44.469002 18.135241 # Oa LIG
253 28 7 0.000000 21.180000 21.868999 18.135241 # Oa LIG
254 28 7 0.000000 34.228001 44.469002 18.135241 # Oa LIG
255 28 7 0.000000 47.276001 21.868999 18.135241 # Oa LIG
256 28 9 0.000000 8.191000 43.382999 20.600241 # Oc LIG
257 28 9 0.000000 21.238001 20.784000 20.600241 # Oc LIG
258 28 9 0.000000 34.285999 43.382999 20.600241 # Oc LIG
259 28 9 0.000000 47.334000 20.784000 20.600241 # Oc LIG
260 28 10 0.000000 7.717000 44.737000 22.015240 # Zn LIG
261 28 10 0.000000 20.764999 22.138000 22.015240 # Zn LIG
262 28 10 0.000000 33.812000 44.737000 22.015240 # Zn LIG
263 28 10 0.000000 46.860001 22.138000 22.015240 # Zn LIG
264 28 10 0.000000 9.589000 44.578999 19.721241 # Zn LIG
265 28 10 0.000000 22.636000 21.980000 19.721241 # Zn LIG
266 28 10 0.000000 35.683998 44.578999 19.721241 # Zn LIG
267 28 10 0.000000 48.731998 21.980000 19.721241 # Zn LIG
268 28 9 0.000000 5.667000 36.318001 22.984241 # Oc LIG
269 28 9 0.000000 18.715000 13.719000 22.984241 # Oc LIG
270 28 9 0.000000 31.763000 36.318001 22.984241 # Oc LIG
271 28 9 0.000000 44.810001 13.719000 22.984241 # Oc LIG
272 28 2 0.000000 7.324000 43.561001 17.714241 # Ca LIG
273 28 2 0.000000 20.371000 20.962000 17.714241 # Ca LIG
274 28 2 0.000000 33.418999 43.561001 17.714241 # Ca LIG
275 28 2 0.000000 46.466999 20.962000 17.714241 # Ca LIG
276 28 8 0.000000 6.857000 43.563999 23.407242 # Ob LIG
277 28 8 0.000000 19.905001 20.964001 23.407242 # Ob LIG
278 28 8 0.000000 32.952000 43.563999 23.407242 # Ob LIG
279 28 8 0.000000 46.000000 20.964001 23.407242 # Ob LIG
280 28 7 0.000000 9.613000 45.073002 22.723240 # Oa LIG
281 28 7 0.000000 22.660999 22.474001 22.723240 # Oa LIG
282 28 7 0.000000 35.709000 45.073002 22.723240 # Oa LIG
283 28 7 0.000000 48.756001 22.474001 22.723240 # Oa LIG
284 28 10 0.000000 3.459000 38.285000 19.275242 # Zn LIG
285 28 10 0.000000 16.507000 15.685000 19.275242 # Zn LIG
286 28 10 0.000000 29.554001 38.285000 19.275242 # Zn LIG
287 28 10 0.000000 42.602001 15.685000 19.275242 # Zn LIG
288 28 7 0.000000 4.698000 36.810001 18.567242 # Oa LIG
289 28 7 0.000000 17.746000 14.211000 18.567242 # Oa LIG
290 28 7 0.000000 30.794001 36.810001 18.567242 # Oa LIG
291 28 7 0.000000 43.841000 14.211000 18.567242 # Oa LIG
292 28 10 0.000000 4.258000 36.584999 21.569241 # Zn LIG
293 28 10 0.000000 17.306000 13.985000 21.569241 # Zn LIG
294 28 10 0.000000 30.353001 36.584999 21.569241 # Zn LIG
295 28 10 0.000000 43.401001 13.985000 21.569241 # Zn LIG
296 28 7 0.000000 3.434000 37.790001 23.155241 # Oa LIG
297 28 7 0.000000 16.482000 15.191000 23.155241 # Oa LIG
298 28 7 0.000000 29.530001 37.790001 23.155241 # Oa LIG
299 28 7 0.000000 42.577000 15.191000 23.155241 # Oa LIG
300 28 9 0.000000 2.523000 22.131001 22.984241 # Oc LIG
301 28 9 0.000000 15.571000 44.730999 22.984241 # Oc LIG
302 28 9 0.000000 28.618999 22.131001 22.984241 # Oc LIG
303 28 9 0.000000 41.666000 44.730999 22.984241 # Oc LIG
304 28 4 0.000000 1.317000 22.372999 23.559240 # Cc LIG
305 28 4 0.000000 14.364000 44.972000 23.559240 # Cc LIG
306 28 4 0.000000 27.412001 22.372999 23.559240 # Cc LIG
307 28 4 0.000000 40.459999 44.972000 23.559240 # Cc LIG
308 28 2 0.000000 10.803000 44.826000 22.302240 # Ca LIG
309 28 2 0.000000 23.851000 22.226999 22.302240 # Ca LIG
310 28 2 0.000000 36.898998 44.826000 22.302240 # Ca LIG
311 28 2 0.000000 49.945999 22.226999 22.302240 # Ca LIG
312 28 3 0.000000 11.923000 45.034000 23.250240 # Cb LIG
313 28 3 0.000000 24.971001 22.434999 23.250240 # Cb LIG
314 28 3 0.000000 38.019001 45.034000 23.250240 # Cb LIG
315 28 3 0.000000 51.066002 22.434999 23.250240 # Cb LIG
316 28 5 0.000000 0.174000 22.223000 22.770241 # Cd LIG
317 28 5 0.000000 13.222000 44.821999 22.770241 # Cd LIG
318 28 5 0.000000 26.268999 22.223000 22.770241 # Cd LIG
319 28 5 0.000000 39.317001 44.821999 22.770241 # Cd LIG
320 28 6 0.000000 0.299000 21.924000 21.732241 # H LIG
321 28 6 0.000000 13.346000 44.522999 21.732241 # H LIG
322 28 6 0.000000 26.393999 21.924000 21.732241 # H LIG
323 28 6 0.000000 39.442001 44.522999 21.732241 # H LIG
324 28 8 0.000000 11.035000 44.421001 21.113241 # Ob LIG
325 28 8 0.000000 24.083000 21.822001 21.113241 # Ob LIG
326 28 8 0.000000 37.130001 44.421001 21.113241 # Ob LIG
327 28 8 0.000000 50.178001 21.822001 21.113241 # Ob LIG
328 28 4 0.000000 6.061000 35.152000 23.559240 # Cc LIG
329 28 4 0.000000 19.108999 12.553000 23.559240 # Cc LIG
330 28 4 0.000000 32.155998 35.152000 23.559240 # Cc LIG
331 28 4 0.000000 45.203999 12.553000 23.559240 # Cc LIG
332 28 2 0.000000 7.968000 32.140999 22.302240 # Ca LIG
333 28 2 0.000000 21.016001 9.542000 22.302240 # Ca LIG
334 28 2 0.000000 34.063999 32.140999 22.302240 # Ca LIG
335 28 2 0.000000 47.111000 9.542000 22.302240 # Ca LIG
336 28 3 0.000000 7.228000 33.007000 23.250240 # Cb LIG
337 28 3 0.000000 20.275999 10.408000 23.250240 # Cb LIG
338 28 3 0.000000 33.323002 33.007000 23.250240 # Cb LIG
339 28 3 0.000000 46.370998 10.408000 23.250240 # Cb LIG
340 28 5 0.000000 6.763000 34.237000 22.770241 # Cd LIG
341 28 5 0.000000 19.809999 11.638000 22.770241 # Cd LIG
342 28 5 0.000000 32.858002 34.237000 22.770241 # Cd LIG
343 28 5 0.000000 45.905998 11.638000 22.770241 # Cd LIG
344 28 6 0.000000 6.959000 34.494999 21.732241 # H LIG
345 28 6 0.000000 20.007000 11.896000 21.732241 # H LIG
346 28 6 0.000000 33.055000 34.494999 21.732241 # H LIG
347 28 6 0.000000 46.102001 11.896000 21.732241 # H LIG
348 28 8 0.000000 8.203000 32.543999 21.113241 # Ob LIG
349 28 8 0.000000 21.250999 9.945000 21.113241 # Ob LIG
350 28 8 0.000000 34.299000 32.543999 21.113241 # Ob LIG
351 28 8 0.000000 47.346001 9.945000 21.113241 # Ob LIG
352 28 9 0.000000 10.524000 30.600000 20.600241 # Oc LIG
353 28 9 0.000000 23.572001 8.001000 20.600241 # Oc LIG
354 28 9 0.000000 36.619999 30.600000 20.600241 # Oc LIG
355 28 9 0.000000 49.667000 8.001000 20.600241 # Oc LIG
356 28 2 0.000000 5.079000 35.655998 18.988241 # Ca LIG
357 28 2 0.000000 18.127001 13.057000 18.988241 # Ca LIG
358 28 2 0.000000 31.174999 35.655998 18.988241 # Ca LIG
359 28 2 0.000000 44.222000 13.057000 18.988241 # Ca LIG
360 28 3 0.000000 5.820000 34.790001 18.040241 # Cb LIG
361 28 3 0.000000 18.867001 12.191000 18.040241 # Cb LIG
362 28 3 0.000000 31.915001 34.790001 18.040241 # Cb LIG
363 28 3 0.000000 44.963001 12.191000 18.040241 # Cb LIG
364 28 5 0.000000 6.285000 33.560001 18.520241 # Cd LIG
365 28 5 0.000000 19.333000 10.961000 18.520241 # Cd LIG
366 28 5 0.000000 32.380001 33.560001 18.520241 # Cd LIG
367 28 5 0.000000 45.428001 10.961000 18.520241 # Cd LIG
368 28 6 0.000000 6.088000 33.301998 19.558241 # H LIG
369 28 6 0.000000 19.136000 10.703000 19.558241 # H LIG
370 28 6 0.000000 32.183998 33.301998 19.558241 # H LIG
371 28 6 0.000000 45.230999 10.703000 19.558241 # H LIG
372 28 8 0.000000 4.844000 35.252998 20.176241 # Ob LIG
373 28 8 0.000000 17.892000 12.654000 20.176241 # Ob LIG
374 28 8 0.000000 30.940001 35.252998 20.176241 # Ob LIG
375 28 8 0.000000 43.987000 12.654000 20.176241 # Ob LIG
376 28 9 0.000000 2.523000 37.198002 20.690241 # Oc LIG
377 28 9 0.000000 15.571000 14.598000 20.690241 # Oc LIG
378 28 9 0.000000 28.618999 37.198002 20.690241 # Oc LIG
379 28 9 0.000000 41.666000 14.598000 20.690241 # Oc LIG
380 28 8 0.000000 2.013000 38.443001 17.882240 # Ob LIG
381 28 8 0.000000 15.060000 15.843000 17.882240 # Ob LIG
382 28 8 0.000000 28.108000 38.443001 17.882240 # Ob LIG
383 28 8 0.000000 41.155998 15.843000 17.882240 # Ob LIG
384 28 2 0.000000 2.244000 38.036999 23.576241 # Ca LIG
385 28 2 0.000000 15.292000 15.438000 23.576241 # Ca LIG
386 28 2 0.000000 28.340000 38.036999 23.576241 # Ca LIG
387 28 2 0.000000 41.387001 15.438000 23.576241 # Ca LIG
388 28 3 0.000000 1.124000 37.828999 22.628241 # Cb LIG
389 28 3 0.000000 14.172000 15.230000 22.628241 # Cb LIG
390 28 3 0.000000 27.219999 37.828999 22.628241 # Cb LIG
391 28 3 0.000000 40.266998 15.230000 22.628241 # Cb LIG
392 28 4 0.000000 1.317000 37.438999 21.265240 # Cc LIG
393 28 4 0.000000 14.364000 14.840000 21.265240 # Cc LIG
394 28 4 0.000000 27.412001 37.438999 21.265240 # Cc LIG
395 28 4 0.000000 40.459999 14.840000 21.265240 # Cc LIG
396 28 5 0.000000 12.874000 15.442000 23.108240 # Cd LIG
397 28 5 0.000000 25.921000 38.041000 23.108240 # Cd LIG
398 28 5 0.000000 38.969002 15.442000 23.108240 # Cd LIG
399 28 5 0.000000 52.016998 38.041000 23.108240 # Cd LIG
400 33 6 0.000000 12.749000 15.741000 17.264240 # H LIG
401 34 6 0.000000 25.797001 38.341000 17.264240 # H LIG
402 35 6 0.000000 38.844002 15.741000 17.264240 # H LIG
403 36 6 0.000000 51.891998 38.341000 17.264240 # H LIG
404 13 2 0.000000 10.803000 14.694000 20.008240 # Ca LIG
405 14 2 0.000000 23.851000 37.292999 20.008240 # Ca LIG
406 15 2 0.000000 36.898998 14.694000 20.008240 # Ca LIG
407 16 2 0.000000 49.945999 37.292999 20.008240 # Ca LIG
408 28 3 0.000000 11.923000 14.902000 20.956242 # Cb LIG
409 28 3 0.000000 24.971001 37.500999 20.956242 # Cb LIG
410 28 3 0.000000 38.019001 14.902000 20.956242 # Cb LIG
411 28 3 0.000000 51.066002 37.500999 20.956242 # Cb LIG
412 28 4 0.000000 11.731000 15.292000 22.318241 # Cc LIG
413 28 4 0.000000 24.778000 37.890999 22.318241 # Cc LIG
414 28 4 0.000000 37.826000 15.292000 22.318241 # Cc LIG
415 28 4 0.000000 50.874001 37.890999 22.318241 # Cc LIG
416 28 5 0.000000 0.174000 37.289001 20.476242 # Cd LIG
417 28 5 0.000000 13.222000 14.690000 20.476242 # Cd LIG
418 28 5 0.000000 26.268999 37.289001 20.476242 # Cd LIG
419 28 5 0.000000 39.317001 14.690000 20.476242 # Cd LIG
420 28 6 0.000000 0.299000 36.990002 19.438240 # H LIG
421 28 6 0.000000 13.346000 14.391000 19.438240 # H LIG
422 28 6 0.000000 26.393999 36.990002 19.438240 # H LIG
423 28 6 0.000000 39.442001 14.391000 19.438240 # H LIG
424 13 8 0.000000 11.035000 14.289000 18.819241 # Ob LIG
425 14 8 0.000000 24.083000 36.888000 18.819241 # Ob LIG
426 15 8 0.000000 37.130001 14.289000 18.819241 # Ob LIG
427 16 8 0.000000 50.178001 36.888000 18.819241 # Ob LIG
428 28 9 0.000000 10.524000 15.534000 22.894241 # Oc LIG
429 28 9 0.000000 23.572001 38.132999 22.894241 # Oc LIG
430 28 9 0.000000 36.619999 15.534000 22.894241 # Oc LIG
431 28 9 0.000000 49.667000 38.132999 22.894241 # Oc LIG
432 5 8 0.000000 4.844000 5.121000 17.882240 # Ob LIG
433 6 8 0.000000 17.892000 27.719999 17.882240 # Ob LIG
434 7 8 0.000000 30.940001 5.121000 17.882240 # Ob LIG
435 8 8 0.000000 43.987000 27.719999 17.882240 # Ob LIG
436 28 9 0.000000 2.523000 7.065000 18.396240 # Oc LIG
437 28 9 0.000000 15.571000 29.664000 18.396240 # Oc LIG
438 28 9 0.000000 28.618999 7.065000 18.396240 # Oc LIG
439 28 9 0.000000 41.666000 29.664000 18.396240 # Oc LIG
440 1 2 0.000000 5.079000 5.524000 23.576241 # Ca LIG
441 2 2 0.000000 18.127001 28.122999 23.576241 # Ca LIG
442 3 2 0.000000 31.174999 5.524000 23.576241 # Ca LIG
443 4 2 0.000000 44.222000 28.122999 23.576241 # Ca LIG
444 28 3 0.000000 5.820000 4.658000 22.628241 # Cb LIG
445 28 3 0.000000 18.867001 27.257000 22.628241 # Cb LIG
446 28 3 0.000000 31.915001 4.658000 22.628241 # Cb LIG
447 28 3 0.000000 44.963001 27.257000 22.628241 # Cb LIG
448 21 4 0.000000 6.061000 5.020000 21.265240 # Cc LIG
449 22 4 0.000000 19.108999 27.618999 21.265240 # Cc LIG
450 23 4 0.000000 32.155998 5.020000 21.265240 # Cc LIG
451 24 4 0.000000 45.203999 27.618999 21.265240 # Cc LIG
452 28 5 0.000000 6.285000 3.428000 23.108240 # Cd LIG
453 28 5 0.000000 19.333000 26.027000 23.108240 # Cd LIG
454 28 5 0.000000 32.380001 3.428000 23.108240 # Cd LIG
455 28 5 0.000000 45.428001 26.027000 23.108240 # Cd LIG
456 37 6 0.000000 6.088000 3.170000 17.264240 # H LIG
457 38 6 0.000000 19.136000 25.768999 17.264240 # H LIG
458 39 6 0.000000 32.183998 3.170000 17.264240 # H LIG
459 40 6 0.000000 45.230999 25.768999 17.264240 # H LIG
460 28 2 0.000000 7.968000 2.009000 20.008240 # Ca LIG
461 28 2 0.000000 21.016001 24.608000 20.008240 # Ca LIG
462 28 2 0.000000 34.063999 2.009000 20.008240 # Ca LIG
463 28 2 0.000000 47.111000 24.608000 20.008240 # Ca LIG
464 21 3 0.000000 7.228000 2.875000 20.956242 # Cb LIG
465 22 3 0.000000 20.275999 25.474001 20.956242 # Cb LIG
466 23 3 0.000000 33.323002 2.875000 20.956242 # Cb LIG
467 24 3 0.000000 46.370998 25.474001 20.956242 # Cb LIG
468 28 4 0.000000 6.987000 2.513000 22.318241 # Cc LIG
469 28 4 0.000000 20.034000 25.112000 22.318241 # Cc LIG
470 28 4 0.000000 33.082001 2.513000 22.318241 # Cc LIG
471 28 4 0.000000 46.130001 25.112000 22.318241 # Cc LIG
472 21 5 0.000000 6.763000 4.105000 20.476242 # Cd LIG
473 22 5 0.000000 19.809999 26.704000 20.476242 # Cd LIG
474 23 5 0.000000 32.858002 4.105000 20.476242 # Cd LIG
475 24 5 0.000000 45.905998 26.704000 20.476242 # Cd LIG
476 21 6 0.000000 6.959000 4.363000 19.438240 # H LIG
477 22 6 0.000000 20.007000 26.962000 19.438240 # H LIG
478 23 6 0.000000 33.055000 4.363000 19.438240 # H LIG
479 24 6 0.000000 46.102001 26.962000 19.438240 # H LIG
480 28 8 0.000000 8.203000 2.412000 18.819241 # Ob LIG
481 28 8 0.000000 21.250999 25.011000 18.819241 # Ob LIG
482 28 8 0.000000 34.299000 2.412000 18.819241 # Ob LIG
483 28 8 0.000000 47.346001 25.011000 18.819241 # Ob LIG
484 1 2 0.000000 2.244000 7.905000 21.282242 # Ca LIG
485 2 2 0.000000 15.292000 30.504000 21.282242 # Ca LIG
486 3 2 0.000000 28.340000 7.905000 21.282242 # Ca LIG
487 4 2 0.000000 41.387001 30.504000 21.282242 # Ca LIG
488 28 3 0.000000 1.124000 7.697000 20.334240 # Cb LIG
489 28 3 0.000000 14.172000 30.296000 20.334240 # Cb LIG
490 28 3 0.000000 27.219999 7.697000 20.334240 # Cb LIG
491 28 3 0.000000 40.266998 30.296000 20.334240 # Cb LIG
492 28 4 0.000000 1.317000 7.307000 18.972240 # Cc LIG
493 28 4 0.000000 14.364000 29.906000 18.972240 # Cc LIG
494 28 4 0.000000 27.412001 7.307000 18.972240 # Cc LIG
495 28 4 0.000000 40.459999 29.906000 18.972240 # Cc LIG
496 28 5 0.000000 12.874000 30.507999 20.814240 # Cd LIG
497 28 5 0.000000 25.921000 7.909000 20.814240 # Cd LIG
498 28 5 0.000000 38.969002 30.507999 20.814240 # Cd LIG
499 28 5 0.000000 52.016998 7.909000 20.814240 # Cd LIG
500 28 6 0.000000 12.749000 30.808001 21.852242 # H LIG
501 28 6 0.000000 25.797001 8.208000 21.852242 # H LIG
502 28 6 0.000000 38.844002 30.808001 21.852242 # H LIG
503 28 6 0.000000 51.891998 8.208000 21.852242 # H LIG
504 1 8 0.000000 2.013000 8.310000 22.470242 # Ob LIG
505 2 8 0.000000 15.060000 30.910000 22.470242 # Ob LIG
506 3 8 0.000000 28.108000 8.310000 22.470242 # Ob LIG
507 4 8 0.000000 41.155998 30.910000 22.470242 # Ob LIG
508 28 3 0.000000 11.923000 29.968000 18.662241 # Cb LIG
509 28 3 0.000000 24.971001 7.369000 18.662241 # Cb LIG
510 28 3 0.000000 38.019001 29.968000 18.662241 # Cb LIG
511 28 3 0.000000 51.066002 7.369000 18.662241 # Cb LIG
512 28 4 0.000000 11.731000 30.358000 20.024240 # Cc LIG
513 28 4 0.000000 24.778999 7.759000 20.024240 # Cc LIG
514 28 4 0.000000 37.826000 30.358000 20.024240 # Cc LIG
515 28 4 0.000000 50.874001 7.759000 20.024240 # Cc LIG
516 28 5 0.000000 0.174000 7.157000 18.182240 # Cd LIG
517 28 5 0.000000 13.222000 29.756001 18.182240 # Cd LIG
518 28 5 0.000000 26.268999 7.157000 18.182240 # Cd LIG
519 28 5 0.000000 39.317001 29.756001 18.182240 # Cd LIG
520 28 2 0.000000 10.803000 29.760000 17.714241 # Ca LIG
521 28 2 0.000000 23.851000 7.161000 17.714241 # Ca LIG
522 28 2 0.000000 36.898998 29.760000 17.714241 # Ca LIG
523 28 2 0.000000 49.945999 7.161000 17.714241 # Ca LIG
524 28 8 0.000000 11.035000 29.355000 23.407242 # Ob LIG