LAMMPS data file. CGCMM style. atom_style full generated by VMD/TopoTools v1.5 on Sun Apr 09 11:01:23 PDT 2017
 4362 atoms
 1180 bonds
 0 angles
 0 dihedrals
 0 impropers
 11 atom types
 1 bond types
 0 angle types
 0 dihedral types
 0 improper types
 0.451838 52.642840  xlo xhi
 0.325101 45.523500  ylo yhi
 0.043880 27.571121  zlo zhi

# Pair Coeffs
#
# 1  Ca
# 2  Cb
# 3  Cc
# 4  Cd
# 5  Cg
# 6  H
# 7  Oa
# 8  Ob
# 9  Oc
# 10  Og
# 11  Zn

 Masses

 1 12.011000 # Ca
 2 12.011000 # Cb
 3 12.011000 # Cc
 4 12.011000 # Cd
 5 12.011000 # Cg
 6 1.008000 # H
 7 15.999000 # Oa
 8 15.999000 # Ob
 9 15.999000 # Oc
 10 15.999000 # Og
 11 65.379997 # Zn

 Atoms

1 1 10 -0.325600 52.190678 45.197601 16.176001 # Og 
2 1 5 0.651200 52.190678 45.197601 15.016001 # Cg 
3 1 10 -0.325600 52.190678 45.197601 13.856001 # Og 
4 2 10 -0.325600 52.190678 45.197601 16.362000 # Og 
5 2 5 0.651200 52.190678 45.197601 15.202001 # Cg 
6 2 10 -0.325600 52.190678 45.197601 14.042001 # Og 
7 3 10 -0.325600 52.190678 45.197601 16.548000 # Og 
8 3 5 0.651200 52.190678 45.197601 15.388000 # Cg 
9 3 10 -0.325600 52.190678 45.197601 14.228001 # Og 
10 4 10 -0.325600 52.190678 45.197601 16.734001 # Og 
11 4 5 0.651200 52.190678 45.197601 15.574000 # Cg 
12 4 10 -0.325600 52.190678 45.197601 14.414001 # Og 
13 5 10 -0.325600 52.190678 45.197601 16.920000 # Og 
14 5 5 0.651200 52.190678 45.197601 15.760000 # Cg 
15 5 10 -0.325600 52.190678 45.197601 14.600000 # Og 
16 6 10 -0.325600 52.190678 45.197601 17.106001 # Og 
17 6 5 0.651200 52.190678 45.197601 15.946000 # Cg 
18 6 10 -0.325600 52.190678 45.197601 14.786000 # Og 
19 7 10 -0.325600 52.190678 45.197601 17.292000 # Og 
20 7 5 0.651200 52.190678 45.197601 16.132000 # Cg 
21 7 10 -0.325600 52.190678 45.197601 14.972000 # Og 
22 8 10 -0.325600 52.190678 45.197601 17.478001 # Og 
23 8 5 0.651200 52.190678 45.197601 16.318001 # Cg 
24 8 10 -0.325600 52.190678 45.197601 15.158000 # Og 
25 9 10 -0.325600 52.190678 45.197601 17.664001 # Og 
26 9 5 0.651200 52.190678 45.197601 16.504002 # Cg 
27 9 10 -0.325600 52.190678 45.197601 15.344001 # Og 
28 10 10 -0.325600 52.190678 45.197601 17.850000 # Og 
29 10 5 0.651200 52.190678 45.197601 16.690001 # Cg 
30 10 10 -0.325600 52.190678 45.197601 15.530001 # Og 
31 11 10 -0.325600 52.190678 45.197601 18.035999 # Og 
32 11 5 0.651200 52.190678 45.197601 16.875999 # Cg 
33 11 10 -0.325600 52.190678 45.197601 15.716001 # Og 
34 12 10 -0.325600 52.190678 45.197601 18.222000 # Og 
35 12 5 0.651200 52.190678 45.197601 17.062000 # Cg 
36 12 10 -0.325600 52.190678 45.197601 15.902000 # Og 
37 13 10 -0.325600 52.190678 45.197601 18.408001 # Og 
38 13 5 0.651200 52.190678 45.197601 17.248001 # Cg 
39 13 10 -0.325600 52.190678 45.197601 16.088001 # Og 
40 14 10 -0.325600 52.190678 45.197601 18.594002 # Og 
41 14 5 0.651200 52.190678 45.197601 17.434000 # Cg 
42 14 10 -0.325600 52.190678 45.197601 16.274000 # Og 
43 15 10 -0.325600 52.190678 45.197601 18.780001 # Og 
44 15 5 0.651200 52.190678 45.197601 17.620001 # Cg 
45 15 10 -0.325600 52.190678 45.197601 16.459999 # Og 
46 16 10 -0.325600 52.190678 45.197601 18.966000 # Og 
47 16 5 0.651200 52.190678 45.197601 17.806000 # Cg 
48 16 10 -0.325600 52.190678 45.197601 16.646000 # Og 
49 17 10 -0.325600 52.190678 45.197601 19.152000 # Og 
50 17 5 0.651200 52.190678 45.197601 17.992001 # Cg 
51 17 10 -0.325600 52.190678 45.197601 16.832001 # Og 
52 18 10 -0.325600 52.190678 45.197601 19.338001 # Og 
53 18 5 0.651200 52.190678 45.197601 18.178001 # Cg 
54 18 10 -0.325600 52.190678 45.197601 17.018002 # Og 
55 19 10 -0.325600 52.190678 45.197601 19.524000 # Og 
56 19 5 0.651200 52.190678 45.197601 18.364000 # Cg 
57 19 10 -0.325600 52.190678 45.197601 17.204000 # Og 
58 20 10 -0.325600 52.190678 45.197601 19.710001 # Og 
59 20 5 0.651200 52.190678 45.197601 18.549999 # Cg 
60 20 10 -0.325600 52.190678 45.197601 17.389999 # Og 
61 21 10 -0.325600 52.190678 45.197601 19.896000 # Og 
62 21 5 0.651200 52.190678 45.197601 18.736000 # Cg 
63 21 10 -0.325600 52.190678 45.197601 17.576000 # Og 
64 22 10 -0.325600 52.190678 45.197601 20.082001 # Og 
65 22 5 0.651200 52.190678 45.197601 18.922001 # Cg 
66 22 10 -0.325600 52.190678 45.197601 17.762001 # Og 
67 23 10 -0.325600 52.190678 45.197601 20.268002 # Og 
68 23 5 0.651200 52.190678 45.197601 19.108002 # Cg 
69 23 10 -0.325600 52.190678 45.197601 17.948000 # Og 
70 24 10 -0.325600 52.190678 45.197601 20.454000 # Og 
71 24 5 0.651200 52.190678 45.197601 19.294001 # Cg 
72 24 10 -0.325600 52.190678 45.197601 18.134001 # Og 
73 25 10 -0.325600 52.190678 45.197601 20.639999 # Og 
74 25 5 0.651200 52.190678 45.197601 19.480000 # Cg 
75 25 10 -0.325600 52.190678 45.197601 18.320000 # Og 
76 26 10 -0.325600 52.190678 45.197601 20.826000 # Og 
77 26 5 0.651200 52.190678 45.197601 19.666000 # Cg 
78 26 10 -0.325600 52.190678 45.197601 18.506001 # Og 
79 27 10 -0.325600 52.190678 45.197601 21.012001 # Og 
80 27 5 0.651200 52.190678 45.197601 19.852001 # Cg 
81 27 10 -0.325600 52.190678 45.197601 18.692001 # Og 
82 28 10 -0.325600 52.190678 45.197601 21.198000 # Og 
83 28 5 0.651200 52.190678 45.197601 20.038000 # Cg 
84 28 10 -0.325600 52.190678 45.197601 18.878000 # Og 
85 29 10 -0.325600 52.190678 45.197601 21.384001 # Og 
86 29 5 0.651200 52.190678 45.197601 20.224001 # Cg 
87 29 10 -0.325600 52.190678 45.197601 19.063999 # Og 
88 30 10 -0.325600 52.190678 45.197601 21.570000 # Og 
89 30 5 0.651200 52.190678 45.197601 20.410000 # Cg 
90 30 10 -0.325600 52.190678 45.197601 19.250000 # Og 
91 31 10 -0.325600 52.190678 45.197601 21.756001 # Og 
92 31 5 0.651200 52.190678 45.197601 20.596001 # Cg 
93 31 10 -0.325600 52.190678 45.197601 19.436001 # Og 
94 32 10 -0.325600 52.190678 45.197601 21.942001 # Og 
95 32 5 0.651200 52.190678 45.197601 20.782001 # Cg 
96 32 10 -0.325600 52.190678 45.197601 19.622000 # Og 
97 33 10 -0.325600 52.190678 45.197601 22.128000 # Og 
98 33 5 0.651200 52.190678 45.197601 20.968000 # Cg 
99 33 10 -0.325600 52.190678 45.197601 19.808001 # Og 
100 34 10 -0.325600 52.190678 45.197601 22.314001 # Og 
101 34 5 0.651200 52.190678 45.197601 21.153999 # Cg 
102 34 10 -0.325600 52.190678 45.197601 19.993999 # Og 
103 35 10 -0.325600 52.190678 45.197601 22.500000 # Og 
104 35 5 0.651200 52.190678 45.197601 21.340000 # Cg 
105 35 10 -0.325600 52.190678 45.197601 20.180000 # Og 
106 36 10 -0.325600 52.190678 45.197601 22.686001 # Og 
107 36 5 0.651200 52.190678 45.197601 21.526001 # Cg 
108 36 10 -0.325600 52.190678 45.197601 20.366001 # Og 
109 37 10 -0.325600 52.190678 45.197601 22.872000 # Og 
110 37 5 0.651200 52.190678 45.197601 21.712000 # Cg 
111 37 10 -0.325600 52.190678 45.197601 20.552000 # Og 
112 38 10 -0.325600 52.190678 45.197601 23.058001 # Og 
113 38 5 0.651200 52.190678 45.197601 21.898001 # Cg 
114 38 10 -0.325600 52.190678 45.197601 20.738001 # Og 
115 39 10 -0.325600 52.190678 45.197601 23.243999 # Og 
116 39 5 0.651200 52.190678 45.197601 22.084000 # Cg 
117 39 10 -0.325600 52.190678 45.197601 20.924000 # Og 
118 40 10 -0.325600 52.190678 45.197601 23.430000 # Og 
119 40 5 0.651200 52.190678 45.197601 22.270000 # Cg 
120 40 10 -0.325600 52.190678 45.197601 21.110001 # Og 
121 41 10 -0.325600 52.190678 45.197601 23.616001 # Og 
122 41 5 0.651200 52.190678 45.197601 22.456001 # Cg 
123 41 10 -0.325600 52.190678 45.197601 21.296001 # Og 
124 42 10 -0.325600 52.190678 45.197601 23.802000 # Og 
125 42 5 0.651200 52.190678 45.197601 22.642000 # Cg 
126 42 10 -0.325600 52.190678 45.197601 21.482000 # Og 
127 43 10 -0.325600 52.190678 45.197601 23.988001 # Og 
128 43 5 0.651200 52.190678 45.197601 22.828001 # Cg 
129 43 10 -0.325600 52.190678 45.197601 21.667999 # Og 
130 44 10 -0.325600 52.190678 45.197601 24.174000 # Og 
131 44 5 0.651200 52.190678 45.197601 23.014000 # Cg 
132 44 10 -0.325600 52.190678 45.197601 21.854000 # Og 
133 45 10 -0.325600 52.190678 45.197601 24.360001 # Og 
134 45 5 0.651200 52.190678 45.197601 23.200001 # Cg 
135 45 10 -0.325600 52.190678 45.197601 22.040001 # Og 
136 46 10 -0.325600 52.190678 45.197601 24.546001 # Og 
137 46 5 0.651200 52.190678 45.197601 23.386002 # Cg 
138 46 10 -0.325600 52.190678 45.197601 22.226000 # Og 
139 47 10 -0.325600 52.190678 45.197601 24.732000 # Og 
140 47 5 0.651200 52.190678 45.197601 23.572001 # Cg 
141 47 10 -0.325600 52.190678 45.197601 22.412001 # Og 
142 48 10 -0.325600 52.190678 45.197601 24.918001 # Og 
143 48 5 0.651200 52.190678 45.197601 23.757999 # Cg 
144 48 10 -0.325600 52.190678 45.197601 22.598000 # Og 
145 49 10 -0.325600 52.190678 45.197601 25.104000 # Og 
146 49 5 0.651200 52.190678 45.197601 23.944000 # Cg 
147 49 10 -0.325600 52.190678 45.197601 22.784000 # Og 
148 50 10 -0.325600 52.190678 45.197601 25.290001 # Og 
149 50 5 0.651200 52.190678 45.197601 24.130001 # Cg 
150 50 10 -0.325600 52.190678 45.197601 22.970001 # Og 
151 51 10 -0.325600 52.190678 45.197601 25.476000 # Og 
152 51 5 0.651200 52.190678 45.197601 24.316000 # Cg 
153 51 10 -0.325600 52.190678 45.197601 23.156000 # Og 
154 52 10 -0.325600 52.190678 45.197601 25.662001 # Og 
155 52 5 0.651200 52.190678 45.197601 24.502001 # Cg 
156 52 10 -0.325600 52.190678 45.197601 23.342001 # Og 
157 53 10 -0.325600 52.190678 45.197601 25.848000 # Og 
158 53 5 0.651200 52.190678 45.197601 24.688000 # Cg 
159 53 10 -0.325600 52.190678 45.197601 23.528000 # Og 
160 54 10 -0.325600 52.190678 45.197601 26.034000 # Og 
161 54 5 0.651200 52.190678 45.197601 24.874001 # Cg 
162 54 10 -0.325600 52.190678 45.197601 23.714001 # Og 
163 55 10 -0.325600 52.190678 45.197601 26.220001 # Og 
164 55 5 0.651200 52.190678 45.197601 25.060001 # Cg 
165 55 10 -0.325600 52.190678 45.197601 23.900000 # Og 
166 56 10 -0.325600 52.190678 45.197601 26.406000 # Og 
167 56 5 0.651200 52.190678 45.197601 25.246000 # Cg 
168 56 10 -0.325600 52.190678 45.197601 24.086000 # Og 
169 57 10 -0.325600 52.190678 45.197601 26.592001 # Og 
170 57 5 0.651200 52.190678 45.197601 25.432001 # Cg 
171 57 10 -0.325600 52.190678 45.197601 24.271999 # Og 
172 58 10 -0.325600 52.190678 45.197601 26.778000 # Og 
173 58 5 0.651200 52.190678 45.197601 25.618000 # Cg 
174 58 10 -0.325600 52.190678 45.197601 24.458000 # Og 
175 59 10 -0.325600 52.190678 45.197601 26.964001 # Og 
176 59 5 0.651200 52.190678 45.197601 25.804001 # Cg 
177 59 10 -0.325600 52.190678 45.197601 24.644001 # Og 
178 60 10 -0.325600 52.190678 45.197601 27.150000 # Og 
179 60 5 0.651200 52.190678 45.197601 25.990000 # Cg 
180 60 10 -0.325600 52.190678 45.197601 24.830000 # Og 
181 61 10 -0.325600 52.190678 45.197601 27.336000 # Og 
182 61 5 0.651200 52.190678 45.197601 26.176001 # Cg 
183 61 10 -0.325600 52.190678 45.197601 25.016001 # Og 
184 62 10 -0.325600 52.190678 45.197601 27.522001 # Og 
185 62 5 0.651200 52.190678 45.197601 26.362000 # Cg 
186 62 10 -0.325600 52.190678 45.197601 25.202000 # Og 
187 63 10 -0.325600 52.190678 45.197601 0.181000 # Og 
188 63 5 0.651200 52.190678 45.197601 26.548000 # Cg 
189 63 10 -0.325600 52.190678 45.197601 25.388000 # Og 
190 64 10 -0.325600 52.190678 45.197601 0.367000 # Og 
191 64 5 0.651200 52.190678 45.197601 26.734001 # Cg 
192 64 10 -0.325600 52.190678 45.197601 25.574001 # Og 
193 65 10 -0.325600 52.190678 45.197601 0.553000 # Og 
194 65 5 0.651200 52.190678 45.197601 26.920000 # Cg 
195 65 10 -0.325600 52.190678 45.197601 25.760000 # Og 
196 66 10 -0.325600 52.190678 45.197601 0.739000 # Og 
197 66 5 0.651200 52.190678 45.197601 27.106001 # Cg 
198 66 10 -0.325600 52.190678 45.197601 25.946001 # Og 
199 67 10 -0.325600 52.190678 45.197601 0.925000 # Og 
200 67 5 0.651200 52.190678 45.197601 27.292000 # Cg 
201 67 10 -0.325600 52.190678 45.197601 26.132000 # Og 
202 68 10 -0.325600 52.190678 45.197601 1.111000 # Og 
203 68 5 0.651200 52.190678 45.197601 27.478001 # Cg 
204 68 10 -0.325600 52.190678 45.197601 26.318001 # Og 
205 69 10 -0.325600 52.190678 45.197601 1.297000 # Og 
206 69 5 0.651200 52.190678 45.197601 0.137000 # Cg 
207 69 10 -0.325600 52.190678 45.197601 26.504000 # Og 
208 70 10 -0.325600 52.190678 45.197601 1.483000 # Og 
209 70 5 0.651200 52.190678 45.197601 0.323000 # Cg 
210 70 10 -0.325600 52.190678 45.197601 26.690001 # Og 
211 71 10 -0.325600 52.190678 45.197601 1.669000 # Og 
212 71 5 0.651200 52.190678 45.197601 0.509000 # Cg 
213 71 10 -0.325600 52.190678 45.197601 26.875999 # Og 
214 72 10 -0.325600 52.190678 45.197601 1.855000 # Og 
215 72 5 0.651200 52.190678 45.197601 0.695000 # Cg 
216 72 10 -0.325600 52.190678 45.197601 27.062000 # Og 
217 73 10 -0.325600 52.190678 45.197601 2.041000 # Og 
218 73 5 0.651200 52.190678 45.197601 0.881000 # Cg 
219 73 10 -0.325600 52.190678 45.197601 27.248001 # Og 
220 74 10 -0.325600 52.190678 45.197601 2.227000 # Og 
221 74 5 0.651200 52.190678 45.197601 1.067000 # Cg 
222 74 10 -0.325600 52.190678 45.197601 27.434000 # Og 
223 75 10 -0.325600 52.190678 45.197601 2.413000 # Og 
224 75 5 0.651200 52.190678 45.197601 1.253000 # Cg 
225 75 10 -0.325600 52.190678 45.197601 0.093000 # Og 
226 76 10 -0.325600 52.190678 45.197601 2.599000 # Og 
227 76 5 0.651200 52.190678 45.197601 1.439000 # Cg 
228 76 10 -0.325600 52.190678 45.197601 0.279000 # Og 
229 77 10 -0.325600 52.190678 45.197601 2.785000 # Og 
230 77 5 0.651200 52.190678 45.197601 1.625000 # Cg 
231 77 10 -0.325600 52.190678 45.197601 0.465000 # Og 
232 78 10 -0.325600 52.190678 45.197601 2.971000 # Og 
233 78 5 0.651200 52.190678 45.197601 1.811000 # Cg 
234 78 10 -0.325600 52.190678 45.197601 0.651000 # Og 
235 79 10 -0.325600 52.190678 45.197601 3.157000 # Og 
236 79 5 0.651200 52.190678 45.197601 1.997000 # Cg 
237 79 10 -0.325600 52.190678 45.197601 0.837000 # Og 
238 80 10 -0.325600 52.190678 45.197601 3.343000 # Og 
239 80 5 0.651200 52.190678 45.197601 2.183000 # Cg 
240 80 10 -0.325600 52.190678 45.197601 1.023000 # Og 
241 81 10 -0.325600 52.190678 45.197601 3.529000 # Og 
242 81 5 0.651200 52.190678 45.197601 2.369000 # Cg 
243 81 10 -0.325600 52.190678 45.197601 1.209000 # Og 
244 82 10 -0.325600 52.190678 45.197601 3.715000 # Og 
245 82 5 0.651200 52.190678 45.197601 2.555000 # Cg 
246 82 10 -0.325600 52.190678 45.197601 1.395000 # Og 
247 83 10 -0.325600 52.190678 45.197601 3.901000 # Og 
248 83 5 0.651200 52.190678 45.197601 2.741000 # Cg 
249 83 10 -0.325600 52.190678 45.197601 1.581000 # Og 
250 84 10 -0.325600 52.190678 45.197601 4.087000 # Og 
251 84 5 0.651200 52.190678 45.197601 2.927000 # Cg 
252 84 10 -0.325600 52.190678 45.197601 1.767000 # Og 
253 85 10 -0.325600 52.190678 45.197601 4.273000 # Og 
254 85 5 0.651200 52.190678 45.197601 3.113000 # Cg 
255 85 10 -0.325600 52.190678 45.197601 1.953000 # Og 
256 86 10 -0.325600 52.190678 45.197601 4.459000 # Og 
257 86 5 0.651200 52.190678 45.197601 3.299000 # Cg 
258 86 10 -0.325600 52.190678 45.197601 2.139000 # Og 
259 87 10 -0.325600 52.190678 45.197601 4.645000 # Og 
260 87 5 0.651200 52.190678 45.197601 3.485000 # Cg 
261 87 10 -0.325600 52.190678 45.197601 2.325000 # Og 
262 88 10 -0.325600 52.190678 45.197601 4.831000 # Og 
263 88 5 0.651200 52.190678 45.197601 3.671000 # Cg 
264 88 10 -0.325600 52.190678 45.197601 2.511000 # Og 
265 89 10 -0.325600 52.190678 45.197601 5.017000 # Og 
266 89 5 0.651200 52.190678 45.197601 3.857000 # Cg 
267 89 10 -0.325600 52.190678 45.197601 2.697000 # Og 
268 90 10 -0.325600 52.190678 45.197601 5.203000 # Og 
269 90 5 0.651200 52.190678 45.197601 4.043000 # Cg 
270 90 10 -0.325600 52.190678 45.197601 2.883000 # Og 
271 91 10 -0.325600 52.190678 45.197601 5.389000 # Og 
272 91 5 0.651200 52.190678 45.197601 4.229000 # Cg 
273 91 10 -0.325600 52.190678 45.197601 3.069000 # Og 
274 92 10 -0.325600 52.190678 45.197601 5.575000 # Og 
275 92 5 0.651200 52.190678 45.197601 4.415000 # Cg 
276 92 10 -0.325600 52.190678 45.197601 3.255000 # Og 
277 93 10 -0.325600 52.190678 45.197601 5.761000 # Og 
278 93 5 0.651200 52.190678 45.197601 4.601000 # Cg 
279 93 10 -0.325600 52.190678 45.197601 3.441000 # Og 
280 94 10 -0.325600 52.190678 45.197601 5.947000 # Og 
281 94 5 0.651200 52.190678 45.197601 4.787000 # Cg 
282 94 10 -0.325600 52.190678 45.197601 3.627000 # Og 
283 95 10 -0.325600 52.190678 45.197601 6.133000 # Og 
284 95 5 0.651200 52.190678 45.197601 4.973000 # Cg 
285 95 10 -0.325600 52.190678 45.197601 3.813000 # Og 
286 96 10 -0.325600 52.190678 45.197601 6.319000 # Og 
287 96 5 0.651200 52.190678 45.197601 5.159000 # Cg 
288 96 10 -0.325600 52.190678 45.197601 3.999000 # Og 
289 97 10 -0.325600 52.190678 45.197601 6.505000 # Og 
290 97 5 0.651200 52.190678 45.197601 5.345000 # Cg 
291 97 10 -0.325600 52.190678 45.197601 4.185000 # Og 
292 98 10 -0.325600 52.190678 45.197601 6.691000 # Og 
293 98 5 0.651200 52.190678 45.197601 5.531000 # Cg 
294 98 10 -0.325600 52.190678 45.197601 4.371000 # Og 
295 99 10 -0.325600 52.190678 45.197601 6.877000 # Og 
296 99 5 0.651200 52.190678 45.197601 5.717000 # Cg 
297 99 10 -0.325600 52.190678 45.197601 4.557000 # Og 
298 100 10 -0.325600 52.190678 45.197601 7.063000 # Og 
299 100 5 0.651200 52.190678 45.197601 5.903000 # Cg 
300 100 10 -0.325600 52.190678 45.197601 4.743000 # Og 
301 101 10 -0.325600 52.190678 45.197601 7.249000 # Og 
302 101 5 0.651200 52.190678 45.197601 6.089000 # Cg 
303 101 10 -0.325600 52.190678 45.197601 4.929000 # Og 
304 102 10 -0.325600 52.190678 45.197601 7.435000 # Og 
305 102 5 0.651200 52.190678 45.197601 6.275000 # Cg 
306 102 10 -0.325600 52.190678 45.197601 5.115000 # Og 
307 103 10 -0.325600 52.190678 45.197601 7.621000 # Og 
308 103 5 0.651200 52.190678 45.197601 6.461000 # Cg 
309 103 10 -0.325600 52.190678 45.197601 5.301000 # Og 
310 104 10 -0.325600 52.190678 45.197601 7.807000 # Og 
311 104 5 0.651200 52.190678 45.197601 6.647000 # Cg 
312 104 10 -0.325600 52.190678 45.197601 5.487000 # Og 
313 105 10 -0.325600 52.190678 45.197601 7.993000 # Og 
314 105 5 0.651200 52.190678 45.197601 6.833000 # Cg 
315 105 10 -0.325600 52.190678 45.197601 5.673000 # Og 
316 106 10 -0.325600 52.190678 45.197601 8.179000 # Og 
317 106 5 0.651200 52.190678 45.197601 7.019000 # Cg 
318 106 10 -0.325600 52.190678 45.197601 5.859000 # Og 
319 107 10 -0.325600 52.190678 45.197601 8.365000 # Og 
320 107 5 0.651200 52.190678 45.197601 7.205000 # Cg 
321 107 10 -0.325600 52.190678 45.197601 6.045000 # Og 
322 108 10 -0.325600 52.190678 45.197601 8.551000 # Og 
323 108 5 0.651200 52.190678 45.197601 7.391000 # Cg 
324 108 10 -0.325600 52.190678 45.197601 6.231000 # Og 
325 109 10 -0.325600 52.190678 45.197601 8.737000 # Og 
326 109 5 0.651200 52.190678 45.197601 7.577000 # Cg 
327 109 10 -0.325600 52.190678 45.197601 6.417000 # Og 
328 110 10 -0.325600 52.190678 45.197601 8.923000 # Og 
329 110 5 0.651200 52.190678 45.197601 7.763000 # Cg 
330 110 10 -0.325600 52.190678 45.197601 6.603000 # Og 
331 111 10 -0.325600 52.190678 45.197601 9.109000 # Og 
332 111 5 0.651200 52.190678 45.197601 7.949000 # Cg 
333 111 10 -0.325600 52.190678 45.197601 6.789000 # Og 
334 112 10 -0.325600 52.190678 45.197601 9.295000 # Og 
335 112 5 0.651200 52.190678 45.197601 8.135000 # Cg 
336 112 10 -0.325600 52.190678 45.197601 6.975000 # Og 
337 113 10 -0.325600 52.190678 45.197601 9.481000 # Og 
338 113 5 0.651200 52.190678 45.197601 8.321000 # Cg 
339 113 10 -0.325600 52.190678 45.197601 7.161000 # Og 
340 114 10 -0.325600 52.190678 45.197601 9.667000 # Og 
341 114 5 0.651200 52.190678 45.197601 8.507000 # Cg 
342 114 10 -0.325600 52.190678 45.197601 7.347000 # Og 
343 115 10 -0.325600 52.190678 45.197601 9.853000 # Og 
344 115 5 0.651200 52.190678 45.197601 8.693000 # Cg 
345 115 10 -0.325600 52.190678 45.197601 7.533000 # Og 
346 116 10 -0.325600 52.190678 45.197601 10.039000 # Og 
347 116 5 0.651200 52.190678 45.197601 8.879000 # Cg 
348 116 10 -0.325600 52.190678 45.197601 7.719000 # Og 
349 117 10 -0.325600 52.190678 45.197601 10.225000 # Og 
350 117 5 0.651200 52.190678 45.197601 9.065000 # Cg 
351 117 10 -0.325600 52.190678 45.197601 7.905000 # Og 
352 118 10 -0.325600 52.190678 45.197601 10.411000 # Og 
353 118 5 0.651200 52.190678 45.197601 9.251000 # Cg 
354 118 10 -0.325600 52.190678 45.197601 8.091000 # Og 
355 119 10 -0.325600 52.190678 45.197601 10.597000 # Og 
356 119 5 0.651200 52.190678 45.197601 9.437000 # Cg 
357 119 10 -0.325600 52.190678 45.197601 8.277000 # Og 
358 120 10 -0.325600 52.190678 45.197601 10.783000 # Og 
359 120 5 0.651200 52.190678 45.197601 9.623000 # Cg 
360 120 10 -0.325600 52.190678 45.197601 8.463000 # Og 
361 121 10 -0.325600 52.190678 45.197601 10.969000 # Og 
362 121 5 0.651200 52.190678 45.197601 9.809000 # Cg 
363 121 10 -0.325600 52.190678 45.197601 8.649000 # Og 
364 122 10 -0.325600 52.190678 45.197601 11.155000 # Og 
365 122 5 0.651200 52.190678 45.197601 9.995000 # Cg 
366 122 10 -0.325600 52.190678 45.197601 8.835000 # Og 
367 123 10 -0.325600 52.190678 45.197601 11.341000 # Og 
368 123 5 0.651200 52.190678 45.197601 10.181000 # Cg 
369 123 10 -0.325600 52.190678 45.197601 9.021000 # Og 
370 124 10 -0.325600 52.190678 45.197601 11.527000 # Og 
371 124 5 0.651200 52.190678 45.197601 10.367000 # Cg 
372 124 10 -0.325600 52.190678 45.197601 9.207000 # Og 
373 125 10 -0.325600 52.190678 45.197601 11.713000 # Og 
374 125 5 0.651200 52.190678 45.197601 10.553000 # Cg 
375 125 10 -0.325600 52.190678 45.197601 9.393000 # Og 
376 126 10 -0.325600 52.190678 45.197601 11.899000 # Og 
377 126 5 0.651200 52.190678 45.197601 10.739000 # Cg 
378 126 10 -0.325600 52.190678 45.197601 9.579000 # Og 
379 127 10 -0.325600 52.190678 45.197601 12.085000 # Og 
380 127 5 0.651200 52.190678 45.197601 10.925000 # Cg 
381 127 10 -0.325600 52.190678 45.197601 9.765000 # Og 
382 128 10 -0.325600 52.190678 45.197601 12.271000 # Og 
383 128 5 0.651200 52.190678 45.197601 11.111000 # Cg 
384 128 10 -0.325600 52.190678 45.197601 9.951000 # Og 
385 129 10 -0.325600 52.190678 45.197601 12.457000 # Og 
386 129 5 0.651200 52.190678 45.197601 11.297000 # Cg 
387 129 10 -0.325600 52.190678 45.197601 10.137000 # Og 
388 130 10 -0.325600 52.190678 45.197601 12.643000 # Og 
389 130 5 0.651200 52.190678 45.197601 11.483000 # Cg 
390 130 10 -0.325600 52.190678 45.197601 10.323000 # Og 
391 131 10 -0.325600 52.190678 45.197601 12.829000 # Og 
392 131 5 0.651200 52.190678 45.197601 11.669000 # Cg 
393 131 10 -0.325600 52.190678 45.197601 10.509000 # Og 
394 132 10 -0.325600 52.190678 45.197601 13.015000 # Og 
395 132 5 0.651200 52.190678 45.197601 11.855000 # Cg 
396 132 10 -0.325600 52.190678 45.197601 10.695000 # Og 
397 133 10 -0.325600 52.190678 45.197601 13.201000 # Og 
398 133 5 0.651200 52.190678 45.197601 12.041000 # Cg 
399 133 10 -0.325600 52.190678 45.197601 10.881000 # Og 
400 134 10 -0.325600 52.190678 45.197601 13.387000 # Og 
401 134 5 0.651200 52.190678 45.197601 12.227000 # Cg 
402 134 10 -0.325600 52.190678 45.197601 11.067000 # Og 
403 135 10 -0.325600 52.190678 45.197601 13.573000 # Og 
404 135 5 0.651200 52.190678 45.197601 12.413000 # Cg 
405 135 10 -0.325600 52.190678 45.197601 11.253000 # Og 
406 136 10 -0.325600 52.190678 45.197601 13.759000 # Og 
407 136 5 0.651200 52.190678 45.197601 12.599000 # Cg 
408 136 10 -0.325600 52.190678 45.197601 11.439000 # Og 
409 137 10 -0.325600 52.190678 45.197601 13.945000 # Og 
410 137 5 0.651200 52.190678 45.197601 12.785000 # Cg 
411 137 10 -0.325600 52.190678 45.197601 11.625000 # Og 
412 138 10 -0.325600 52.190678 45.197601 14.131000 # Og 
413 138 5 0.651200 52.190678 45.197601 12.971000 # Cg 
414 138 10 -0.325600 52.190678 45.197601 11.811000 # Og 
415 139 10 -0.325600 52.190678 45.197601 14.317000 # Og 
416 139 5 0.651200 52.190678 45.197601 13.157000 # Cg 
417 139 10 -0.325600 52.190678 45.197601 11.997000 # Og 
418 140 10 -0.325600 52.190678 45.197601 14.503000 # Og 
419 140 5 0.651200 52.190678 45.197601 13.343000 # Cg 
420 140 10 -0.325600 52.190678 45.197601 12.183000 # Og 
421 141 10 -0.325600 52.190678 45.197601 14.689000 # Og 
422 141 5 0.651200 52.190678 45.197601 13.529000 # Cg 
423 141 10 -0.325600 52.190678 45.197601 12.369000 # Og 
424 142 10 -0.325600 52.190678 45.197601 14.875000 # Og 
425 142 5 0.651200 52.190678 45.197601 13.715000 # Cg 
426 142 10 -0.325600 52.190678 45.197601 12.555000 # Og 
427 143 10 -0.325600 52.190678 45.197601 15.061000 # Og 
428 143 5 0.651200 52.190678 45.197601 13.901000 # Cg 
429 143 10 -0.325600 52.190678 45.197601 12.741000 # Og 
430 144 10 -0.325600 52.190678 45.197601 15.247000 # Og 
431 144 5 0.651200 52.190678 45.197601 14.087000 # Cg 
432 144 10 -0.325600 52.190678 45.197601 12.927000 # Og 
433 145 10 -0.325600 52.190678 45.197601 15.433000 # Og 
434 145 5 0.651200 52.190678 45.197601 14.273000 # Cg 
435 145 10 -0.325600 52.190678 45.197601 13.113000 # Og 
436 146 10 -0.325600 52.190678 45.197601 15.619000 # Og 
437 146 5 0.651200 52.190678 45.197601 14.459000 # Cg 
438 146 10 -0.325600 52.190678 45.197601 13.299000 # Og 
439 147 10 -0.325600 52.190678 45.197601 15.805000 # Og 
440 147 5 0.651200 52.190678 45.197601 14.645000 # Cg 
441 147 10 -0.325600 52.190678 45.197601 13.485000 # Og 
442 148 10 -0.325600 52.190678 45.197601 15.991000 # Og 
443 148 5 0.651200 52.190678 45.197601 14.831000 # Cg 
444 148 10 -0.325600 52.190678 45.197601 13.671000 # Og 
445 149 10 -0.325600 52.190678 22.599600 16.176001 # Og 
446 149 5 0.651200 52.190678 22.599600 15.016001 # Cg 
447 149 10 -0.325600 52.190678 22.599600 13.856001 # Og 
448 150 10 -0.325600 52.190678 22.599600 16.362000 # Og 
449 150 5 0.651200 52.190678 22.599600 15.202001 # Cg 
450 150 10 -0.325600 52.190678 22.599600 14.042001 # Og 
451 151 10 -0.325600 52.190678 22.599600 16.548000 # Og 
452 151 5 0.651200 52.190678 22.599600 15.388000 # Cg 
453 151 10 -0.325600 52.190678 22.599600 14.228001 # Og 
454 152 10 -0.325600 52.190678 22.599600 16.734001 # Og 
455 152 5 0.651200 52.190678 22.599600 15.574000 # Cg 
456 152 10 -0.325600 52.190678 22.599600 14.414001 # Og 
457 153 10 -0.325600 52.190678 22.599600 16.920000 # Og 
458 153 5 0.651200 52.190678 22.599600 15.760000 # Cg 
459 153 10 -0.325600 52.190678 22.599600 14.600000 # Og 
460 154 10 -0.325600 52.190678 22.599600 17.106001 # Og 
461 154 5 0.651200 52.190678 22.599600 15.946000 # Cg 
462 154 10 -0.325600 52.190678 22.599600 14.786000 # Og 
463 155 10 -0.325600 52.190678 22.599600 17.292000 # Og 
464 155 5 0.651200 52.190678 22.599600 16.132000 # Cg 
465 155 10 -0.325600 52.190678 22.599600 14.972000 # Og 
466 156 10 -0.325600 52.190678 22.599600 17.478001 # Og 
467 156 5 0.651200 52.190678 22.599600 16.318001 # Cg 
468 156 10 -0.325600 52.190678 22.599600 15.158000 # Og 
469 157 10 -0.325600 52.190678 22.599600 17.664001 # Og 
470 157 5 0.651200 52.190678 22.599600 16.504002 # Cg 
471 157 10 -0.325600 52.190678 22.599600 15.344001 # Og 
472 158 10 -0.325600 52.190678 22.599600 17.850000 # Og 
473 158 5 0.651200 52.190678 22.599600 16.690001 # Cg 
474 158 10 -0.325600 52.190678 22.599600 15.530001 # Og 
475 159 10 -0.325600 52.190678 22.599600 18.035999 # Og 
476 159 5 0.651200 52.190678 22.599600 16.875999 # Cg 
477 159 10 -0.325600 52.190678 22.599600 15.716001 # Og 
478 160 10 -0.325600 52.190678 22.599600 18.222000 # Og 
479 160 5 0.651200 52.190678 22.599600 17.062000 # Cg 
480 160 10 -0.325600 52.190678 22.599600 15.902000 # Og 
481 161 10 -0.325600 52.190678 22.599600 18.408001 # Og 
482 161 5 0.651200 52.190678 22.599600 17.248001 # Cg 
483 161 10 -0.325600 52.190678 22.599600 16.088001 # Og 
484 162 10 -0.325600 52.190678 22.599600 18.594002 # Og 
485 162 5 0.651200 52.190678 22.599600 17.434000 # Cg 
486 162 10 -0.325600 52.190678 22.599600 16.274000 # Og 
487 163 10 -0.325600 52.190678 22.599600 18.780001 # Og 
488 163 5 0.651200 52.190678 22.599600 17.620001 # Cg 
489 163 10 -0.325600 52.190678 22.599600 16.459999 # Og 
490 164 10 -0.325600 52.190678 22.599600 18.966000 # Og 
491 164 5 0.651200 52.190678 22.599600 17.806000 # Cg 
492 164 10 -0.325600 52.190678 22.599600 16.646000 # Og 
493 165 10 -0.325600 52.190678 22.599600 19.152000 # Og 
494 165 5 0.651200 52.190678 22.599600 17.992001 # Cg 
495 165 10 -0.325600 52.190678 22.599600 16.832001 # Og 
496 166 10 -0.325600 52.190678 22.599600 19.338001 # Og 
497 166 5 0.651200 52.190678 22.599600 18.178001 # Cg 
498 166 10 -0.325600 52.190678 22.599600 17.018002 # Og 
499 167 10 -0.325600 52.190678 22.599600 19.524000 # Og 
500 167 5 0.651200 52.190678 22.599600 18.364000 # Cg 
501 167 10 -0.325600 52.190678 22.599600 17.204000 # Og 
502 168 10 -0.325600 52.190678 22.599600 19.710001 # Og 
503 168 5 0.651200 52.190678 22.599600 18.549999 # Cg 
504 168 10 -0.325600 52.190678 22.599600 17.389999 # Og 
505 169 10 -0.325600 52.190678 22.599600 19.896000 # Og 
506 169 5 0.651200 52.190678 22.599600 18.736000 # Cg 
507 169 10 -0.325600 52.190678 22.599600 17.576000 # Og 
508 170 10 -0.325600 52.190678 22.599600 20.082001 # Og 
509 170 5 0.651200 52.190678 22.599600 18.922001 # Cg 
510 170 10 -0.325600 52.190678 22.599600 17.762001 # Og 
511 171 10 -0.325600 52.190678 22.599600 20.268002 # Og 
512 171 5 0.651200 52.190678 22.599600 19.108002 # Cg 
513 171 10 -0.325600 52.190678 22.599600 17.948000 # Og 
514 172 10 -0.325600 52.190678 22.599600 20.454000 # Og 
515 172 5 0.651200 52.190678 22.599600 19.294001 # Cg 
516 172 10 -0.325600 52.190678 22.599600 18.134001 # Og 
517 173 10 -0.325600 52.190678 22.599600 20.639999 # Og 
518 173 5 0.651200 52.190678 22.599600 19.480000 # Cg 
519 173 10 -0.325600 52.190678 22.599600 18.320000 # Og 
520 174 10 -0.325600 52.190678 22.599600 20.826000 # Og 
521 174 5 0.651200 52.190678 22.599600 19.666000 # Cg 
522 174 10 -0.325600 52.190678 22.599600 18.506001 # Og 
523 175 10 -0.325600 52.190678 22.599600 21.012001 # Og 
524 175 5 0.651200 52.190678 22.599600 19.852001 # Cg 
525 175 10 -0.325600 52.190678 22.599600 18.692001 # Og 
526 176 10 -0.325600 52.190678 22.599600 21.198000 # Og 
527 176 5 0.651200 52.190678 22.599600 20.038000 # Cg 
528 176 10 -0.325600 52.190678 22.599600 18.878000 # Og 
529 177 10 -0.325600 52.190678 22.599600 21.384001 # Og 
530 177 5 0.651200 52.190678 22.599600 20.224001 # Cg 
531 177 10 -0.325600 52.190678 22.599600 19.063999 # Og 