LAMMPS data file. CGCMM style. atom_style full generated by VMD/TopoTools v1.5 on Tue Apr 04 10:45:33 PDT 2017
 1396 atoms
 0 bonds
 0 angles
 0 dihedrals
 0 impropers
 10 atom types
 0 bond types
 0 angle types
 0 dihedral types
 0 improper types
 0.439550 26.456750  xlo xhi
 0.332838 45.395937  ylo yhi
 -0.387750 26.927729  zlo zhi

# Pair Coeffs
#
# 1  CH4
# 2  Ca
# 3  Cb
# 4  Cc
# 5  Cd
# 6  H
# 7  Ni
# 8  Oa
# 9  Ob
# 10  Oc

 Masses

 1 16.040001 # CH4
 2 12.011000 # Ca
 3 12.011000 # Cb
 4 12.011000 # Cc
 5 12.011000 # Cd
 6 1.008000 # H
 7 58.693001 # Ni
 8 15.999000 # Oa
 9 15.999000 # Ob
 10 15.999000 # Oc

 Atoms

1 1 1 0.000000 26.017300 45.062775 14.204000 # CH4 
2 2 1 0.000000 26.017300 45.062775 15.296000 # CH4 
3 3 1 0.000000 26.017300 45.062775 16.389000 # CH4 
4 4 1 0.000000 26.017300 45.062775 17.481001 # CH4 
5 5 1 0.000000 26.017300 45.062775 18.574001 # CH4 
6 6 1 0.000000 26.017300 45.062775 19.667000 # CH4 
7 7 1 0.000000 26.017300 45.062775 20.759001 # CH4 
8 8 1 0.000000 26.017300 45.062775 21.852001 # CH4 
9 9 1 0.000000 26.017300 45.062775 22.945000 # CH4 
10 10 1 0.000000 26.017300 45.062775 24.037001 # CH4 
11 11 1 0.000000 26.017300 45.062775 25.130001 # CH4 
12 12 1 0.000000 26.017300 45.062775 26.222000 # CH4 
13 13 1 0.000000 26.017300 45.062775 0.000000 # CH4 
14 14 1 0.000000 26.017300 45.062775 1.093000 # CH4 
15 15 1 0.000000 26.017300 45.062775 2.185000 # CH4 
16 16 1 0.000000 26.017300 45.062775 3.278000 # CH4 
17 17 1 0.000000 26.017300 45.062775 4.370000 # CH4 
18 18 1 0.000000 26.017300 45.062775 5.463000 # CH4 
19 19 1 0.000000 26.017300 45.062775 6.556000 # CH4 
20 20 1 0.000000 26.017300 45.062775 7.648000 # CH4 
21 21 1 0.000000 26.017300 45.062775 8.741000 # CH4 
22 22 1 0.000000 26.017300 45.062775 9.834000 # CH4 
23 23 1 0.000000 26.017300 45.062775 10.926000 # CH4 
24 24 1 0.000000 26.017300 45.062775 12.019000 # CH4 
25 25 1 0.000000 26.017300 45.062775 13.111000 # CH4 
26 26 1 0.000000 26.017300 22.531775 14.204000 # CH4 
27 27 1 0.000000 26.017300 22.531775 15.296000 # CH4 
28 28 1 0.000000 26.017300 22.531775 16.389000 # CH4 
29 29 1 0.000000 26.017300 22.531775 17.481001 # CH4 
30 30 1 0.000000 26.017300 22.531775 18.574001 # CH4 
31 31 1 0.000000 26.017300 22.531775 19.667000 # CH4 
32 32 1 0.000000 26.017300 22.531775 20.759001 # CH4 
33 33 1 0.000000 26.017300 22.531775 21.852001 # CH4 
34 34 1 0.000000 26.017300 22.531775 22.945000 # CH4 
35 35 1 0.000000 26.017300 22.531775 24.037001 # CH4 
36 36 1 0.000000 26.017300 22.531775 25.130001 # CH4 
37 37 1 0.000000 26.017300 22.531775 26.222000 # CH4 
38 38 1 0.000000 26.017300 22.531775 0.000000 # CH4 
39 39 1 0.000000 26.017300 22.531775 1.093000 # CH4 
40 40 1 0.000000 26.017300 22.531775 2.185000 # CH4 
41 41 1 0.000000 26.017300 22.531775 3.278000 # CH4 
42 42 1 0.000000 26.017300 22.531775 4.370000 # CH4 
43 43 1 0.000000 26.017300 22.531775 5.463000 # CH4 
44 44 1 0.000000 26.017300 22.531775 6.556000 # CH4 
45 45 1 0.000000 26.017300 22.531775 7.648000 # CH4 
46 46 1 0.000000 26.017300 22.531775 8.741000 # CH4 
47 47 1 0.000000 26.017300 22.531775 9.834000 # CH4 
48 48 1 0.000000 26.017300 22.531775 10.926000 # CH4 
49 49 1 0.000000 26.017300 22.531775 12.019000 # CH4 
50 50 1 0.000000 26.017300 22.531775 13.111000 # CH4 
51 51 1 0.000000 13.008301 45.062775 14.204000 # CH4 
52 52 1 0.000000 13.008301 45.062775 15.296000 # CH4 
53 53 1 0.000000 13.008301 45.062775 16.389000 # CH4 
54 54 1 0.000000 13.008301 45.062775 17.481001 # CH4 
55 55 1 0.000000 13.008301 45.062775 18.574001 # CH4 
56 56 1 0.000000 13.008301 45.062775 19.667000 # CH4 
57 57 1 0.000000 13.008301 45.062775 20.759001 # CH4 
58 58 1 0.000000 13.008301 45.062775 21.852001 # CH4 
59 59 1 0.000000 13.008301 45.062775 22.945000 # CH4 
60 60 1 0.000000 13.008301 45.062775 24.037001 # CH4 
61 61 1 0.000000 13.008301 45.062775 25.130001 # CH4 
62 62 1 0.000000 13.008301 45.062775 26.222000 # CH4 
63 63 1 0.000000 13.008301 45.062775 0.000000 # CH4 
64 64 1 0.000000 13.008301 45.062775 1.093000 # CH4 
65 65 1 0.000000 13.008301 45.062775 2.185000 # CH4 
66 66 1 0.000000 13.008301 45.062775 3.278000 # CH4 
67 67 1 0.000000 13.008301 45.062775 4.370000 # CH4 
68 68 1 0.000000 13.008301 45.062775 5.463000 # CH4 
69 69 1 0.000000 13.008301 45.062775 6.556000 # CH4 
70 70 1 0.000000 13.008301 45.062775 7.648000 # CH4 
71 71 1 0.000000 13.008301 45.062775 8.741000 # CH4 
72 72 1 0.000000 13.008301 45.062775 9.834000 # CH4 
73 73 1 0.000000 13.008301 45.062775 10.926000 # CH4 
74 74 1 0.000000 13.008301 45.062775 12.019000 # CH4 
75 75 1 0.000000 13.008301 45.062775 13.111000 # CH4 
76 76 1 0.000000 13.008301 22.531775 14.204000 # CH4 
77 77 1 0.000000 13.008301 22.531775 15.296000 # CH4 
78 78 1 0.000000 13.008301 22.531775 16.389000 # CH4 
79 79 1 0.000000 13.008301 22.531775 17.481001 # CH4 
80 80 1 0.000000 13.008301 22.531775 18.574001 # CH4 
81 81 1 0.000000 13.008301 22.531775 19.667000 # CH4 
82 82 1 0.000000 13.008301 22.531775 20.759001 # CH4 
83 83 1 0.000000 13.008301 22.531775 21.852001 # CH4 
84 84 1 0.000000 13.008301 22.531775 22.945000 # CH4 
85 85 1 0.000000 13.008301 22.531775 24.037001 # CH4 
86 86 1 0.000000 13.008301 22.531775 25.130001 # CH4 
87 87 1 0.000000 13.008301 22.531775 26.222000 # CH4 
88 88 1 0.000000 13.008301 22.531775 0.000000 # CH4 
89 89 1 0.000000 13.008301 22.531775 1.093000 # CH4 
90 90 1 0.000000 13.008301 22.531775 2.185000 # CH4 
91 91 1 0.000000 13.008301 22.531775 3.278000 # CH4 
92 92 1 0.000000 13.008301 22.531775 4.370000 # CH4 
93 93 1 0.000000 13.008301 22.531775 5.463000 # CH4 
94 94 1 0.000000 13.008301 22.531775 6.556000 # CH4 
95 95 1 0.000000 13.008301 22.531775 7.648000 # CH4 
96 96 1 0.000000 13.008301 22.531775 8.741000 # CH4 
97 97 1 0.000000 13.008301 22.531775 9.834000 # CH4 
98 98 1 0.000000 13.008301 22.531775 10.926000 # CH4 
99 99 1 0.000000 13.008301 22.531775 12.019000 # CH4 
100 100 1 0.000000 13.008301 22.531775 13.111000 # CH4 
101 101 9 0.000000 23.941000 21.823999 20.945980 # Ob LIG
102 101 9 0.000000 10.932000 44.355999 20.945980 # Ob LIG
103 101 9 0.000000 23.941000 6.803000 23.221979 # Ob LIG
104 101 9 0.000000 10.932000 29.334000 23.221979 # Ob LIG
105 101 10 0.000000 23.514999 7.995000 20.491980 # Oc LIG
106 101 10 0.000000 10.506000 30.527000 20.491980 # Oc LIG
107 101 8 0.000000 22.554001 7.442000 18.022980 # Oa LIG
108 101 8 0.000000 9.546000 29.973000 18.022980 # Oa LIG
109 101 8 0.000000 22.554001 22.462999 22.575979 # Oa LIG
110 101 8 0.000000 9.546000 44.993999 22.575979 # Oa LIG
111 101 8 0.000000 21.304001 8.301000 22.575979 # Oa LIG
112 101 8 0.000000 8.295000 30.833000 22.575979 # Oa LIG
113 101 9 0.000000 21.164000 9.821000 20.945980 # Ob LIG
114 101 9 0.000000 8.155000 32.353001 20.945980 # Ob LIG
115 101 10 0.000000 21.184000 20.701000 20.491980 # Oc LIG
116 101 10 0.000000 8.176000 43.233002 20.491980 # Oc LIG
117 101 8 0.000000 21.184999 21.809999 18.022980 # Oa LIG
118 101 8 0.000000 8.176000 44.341000 18.022980 # Oa LIG
119 101 9 0.000000 19.938000 20.927999 23.221979 # Ob LIG
120 101 9 0.000000 6.930000 43.459999 23.221979 # Ob LIG
121 101 9 0.000000 19.087999 16.624001 22.302979 # Ob LIG
122 101 9 0.000000 6.079000 39.155998 22.302979 # Ob LIG
123 101 10 0.000000 18.681999 13.676000 22.756979 # Oc LIG
124 101 10 0.000000 5.673000 36.207001 22.756979 # Oc LIG
125 101 8 0.000000 17.841000 15.743000 20.672979 # Oa LIG
126 101 8 0.000000 4.833000 38.275002 20.672979 # Oa LIG
127 101 10 0.000000 17.841999 16.851000 18.204979 # Oc LIG
128 101 10 0.000000 4.833000 39.382999 18.204979 # Oc LIG
129 101 10 0.000000 10.506000 0.485000 18.214979 # Oc LIG
130 101 10 0.000000 23.514999 23.017000 18.214979 # Oc LIG
131 101 10 0.000000 10.506000 15.506000 22.767979 # Oc LIG
132 101 10 0.000000 23.514999 38.036999 22.767979 # Oc LIG
133 101 9 0.000000 10.932000 14.313000 18.668980 # Ob LIG
134 101 9 0.000000 23.941000 36.845001 18.668980 # Ob LIG
135 101 9 0.000000 15.085000 0.708000 20.026979 # Ob LIG
136 101 9 0.000000 2.076000 23.239000 20.026979 # Ob LIG
137 101 9 0.000000 15.085000 15.729000 17.750980 # Ob LIG
138 101 9 0.000000 2.077000 38.259998 17.750980 # Ob LIG
139 101 10 0.000000 15.511000 14.536000 20.480980 # Oc LIG
140 101 10 0.000000 2.503000 37.068001 20.480980 # Oc LIG
141 101 8 0.000000 16.471001 15.090000 22.948978 # Oa LIG
142 101 8 0.000000 3.463000 37.620998 22.948978 # Oa LIG
143 101 8 0.000000 16.471001 0.069000 18.396980 # Oa LIG
144 101 8 0.000000 3.463000 22.601000 18.396980 # Oa LIG
145 101 8 0.000000 17.722000 14.230000 18.396980 # Oa LIG
146 101 8 0.000000 4.713000 36.762001 18.396980 # Oa LIG
147 101 9 0.000000 17.862000 12.710000 20.026979 # Ob LIG
148 101 9 0.000000 4.853000 35.242001 20.026979 # Ob LIG
149 101 10 0.000000 17.841000 1.831000 20.480980 # Oc LIG
150 101 10 0.000000 4.833000 24.362000 20.480980 # Oc LIG
151 101 8 0.000000 17.841000 0.722000 22.948978 # Oa LIG
152 101 8 0.000000 4.833000 23.254000 22.948978 # Oa LIG
153 101 9 0.000000 19.087000 1.603000 17.750980 # Ob LIG
154 101 9 0.000000 6.079000 24.135000 17.750980 # Ob LIG
155 101 9 0.000000 19.938000 5.907000 18.668980 # Ob LIG
156 101 9 0.000000 6.930000 28.438999 18.668980 # Ob LIG
157 101 9 0.000000 2.076000 8.218000 22.302979 # Ob LIG
158 101 9 0.000000 15.085000 30.750000 22.302979 # Ob LIG
159 101 10 0.000000 2.503000 7.026000 18.204979 # Oc LIG
160 101 10 0.000000 15.511000 29.556999 18.204979 # Oc LIG
161 101 10 0.000000 2.503000 22.047001 22.756979 # Oc LIG
162 101 10 0.000000 15.511000 44.577999 22.756979 # Oc LIG
163 101 10 0.000000 20.344000 8.856000 18.215981 # Oc LIG
164 101 10 0.000000 7.336000 31.388000 18.215981 # Oc LIG
165 101 8 0.000000 21.184999 6.789000 20.299980 # Oa LIG
166 101 8 0.000000 8.176000 29.320000 20.299980 # Oa LIG
167 101 10 0.000000 21.184000 5.680000 22.767979 # Oc LIG
168 101 10 0.000000 8.176000 28.212000 22.767979 # Oc LIG
169 101 8 0.000000 3.463000 7.579000 20.672979 # Oa LIG
170 101 8 0.000000 16.471001 30.111000 20.672979 # Oa LIG
171 101 8 0.000000 4.713000 6.720000 22.948978 # Oa LIG
172 101 8 0.000000 17.722000 29.250999 22.948978 # Oa LIG
173 101 8 0.000000 4.713000 21.740999 20.672979 # Oa LIG
174 101 8 0.000000 17.722000 44.271999 20.672979 # Oa LIG
175 101 9 0.000000 4.853000 5.200000 17.750980 # Ob LIG
176 101 9 0.000000 17.862000 27.731001 17.750980 # Ob LIG
177 101 9 0.000000 4.853000 20.221001 22.302979 # Ob LIG
178 101 9 0.000000 17.862000 42.751999 22.302979 # Ob LIG
179 101 10 0.000000 4.833000 9.341000 22.756979 # Oc LIG
180 101 10 0.000000 17.841000 31.872999 22.756979 # Oc LIG
181 101 8 0.000000 4.833000 8.232000 18.396980 # Oa LIG
182 101 8 0.000000 17.841000 30.764000 18.396980 # Oa LIG
183 101 10 0.000000 5.673000 6.165000 20.480980 # Oc LIG
184 101 10 0.000000 18.681999 28.697001 20.480980 # Oc LIG
185 101 10 0.000000 5.673000 21.186001 18.204979 # Oc LIG
186 101 10 0.000000 18.681000 43.717999 18.204979 # Oc LIG
187 101 9 0.000000 6.079000 9.114000 20.026979 # Ob LIG
188 101 9 0.000000 19.087000 31.645000 20.026979 # Ob LIG
189 101 9 0.000000 6.930000 13.418000 20.945980 # Ob LIG
190 101 9 0.000000 19.938000 35.949001 20.945980 # Ob LIG
191 101 10 0.000000 7.336000 1.345000 22.767979 # Oc LIG
192 101 10 0.000000 20.344000 23.877001 22.767979 # Oc LIG
193 101 10 0.000000 7.336000 16.365999 20.491980 # Oc LIG
194 101 10 0.000000 20.344000 38.897999 20.491980 # Oc LIG
195 101 8 0.000000 8.176000 14.299000 22.575979 # Oa LIG
196 101 8 0.000000 21.184999 36.831001 22.575979 # Oa LIG
197 101 10 0.000000 8.176000 13.190000 18.214979 # Oc LIG
198 101 10 0.000000 21.184000 35.722000 18.214979 # Oc LIG
199 101 9 0.000000 8.155000 2.311000 18.668980 # Ob LIG
200 101 9 0.000000 21.164000 24.841999 18.668980 # Ob LIG
201 101 9 0.000000 8.155000 17.332001 23.221979 # Ob LIG
202 101 9 0.000000 21.164000 39.862999 23.221979 # Ob LIG
203 101 8 0.000000 8.296000 0.791000 20.299980 # Oa LIG
204 101 8 0.000000 21.304001 23.322001 20.299980 # Oa LIG
205 101 8 0.000000 8.295000 15.812000 18.022980 # Oa LIG
206 101 8 0.000000 21.304001 38.342999 18.022980 # Oa LIG
207 101 8 0.000000 9.546000 14.952000 20.299980 # Oa LIG
208 101 8 0.000000 22.554001 37.484001 20.299980 # Oa LIG
209 101 5 0.000000 25.868000 7.878000 20.672979 # Cd LIG
210 101 5 0.000000 12.860000 30.409000 20.672979 # Cd LIG
211 101 3 0.000000 24.879999 7.373000 18.527981 # Cb LIG
212 101 3 0.000000 11.871000 29.905001 18.527981 # Cb LIG
213 101 3 0.000000 24.879999 22.393999 23.080978 # Cb LIG
214 101 3 0.000000 11.871000 44.925999 23.080978 # Cb LIG
215 101 4 0.000000 24.708000 7.749000 19.900980 # Cc LIG
216 101 4 0.000000 11.699000 30.280001 19.900980 # Cc LIG
217 101 2 0.000000 23.745001 22.209999 22.137980 # Ca LIG
218 101 2 0.000000 10.736000 44.741001 22.137980 # Ca LIG
219 101 2 0.000000 23.745001 7.188000 17.585979 # Ca LIG
220 101 2 0.000000 10.736000 29.719999 17.585979 # Ca LIG
221 101 2 0.000000 20.927999 9.459000 22.137980 # Ca LIG
222 101 2 0.000000 7.919000 31.990999 22.137980 # Ca LIG
223 101 4 0.000000 20.374001 19.791000 19.900980 # Cc LIG
224 101 4 0.000000 7.365000 42.323002 19.900980 # Cc LIG
225 101 2 0.000000 20.370001 20.905001 17.585979 # Ca LIG
226 101 2 0.000000 7.361000 43.437000 17.585979 # Ca LIG
227 101 3 0.000000 20.201000 10.350000 23.080978 # Cb LIG
228 101 3 0.000000 7.192000 32.881001 23.080978 # Cb LIG
229 101 3 0.000000 19.962999 19.830000 18.527981 # Cb LIG
230 101 3 0.000000 6.954000 42.362000 18.527981 # Cb LIG
231 101 5 0.000000 19.905001 18.722000 20.672979 # Cd LIG
232 101 5 0.000000 6.897000 41.252998 20.672979 # Cd LIG
233 101 5 0.000000 19.757000 11.578000 22.575979 # Cd LIG
234 101 5 0.000000 6.749000 34.110001 22.575979 # Cd LIG
235 101 5 0.000000 19.120001 18.830999 18.022980 # Cd LIG
236 101 5 0.000000 6.112000 41.362999 18.022980 # Cd LIG
237 101 3 0.000000 19.063000 17.723000 20.167980 # Cb LIG
238 101 3 0.000000 6.055000 40.254002 20.167980 # Cb LIG
239 101 4 0.000000 19.065001 12.519000 23.347980 # Cc LIG
240 101 4 0.000000 6.056000 35.050999 23.347980 # Cc LIG
241 101 2 0.000000 18.656000 16.646999 21.110979 # Ca LIG
242 101 2 0.000000 5.647000 39.179001 21.110979 # Ca LIG
243 101 4 0.000000 18.652000 17.761000 18.795979 # Cc LIG
244 101 4 0.000000 5.643000 40.292999 18.795979 # Cc LIG
245 101 5 0.000000 0.149000 7.143000 18.022980 # Cd LIG
246 101 5 0.000000 13.157000 29.674999 18.022980 # Cd LIG
247 101 5 0.000000 0.149000 22.164000 22.575979 # Cd LIG
248 101 5 0.000000 13.157000 44.695999 22.575979 # Cd LIG
249 101 3 0.000000 1.137000 7.648000 20.167980 # Cb LIG
250 101 3 0.000000 14.146000 30.179001 20.167980 # Cb LIG
251 101 4 0.000000 1.309000 22.292999 23.347980 # Cc LIG
252 101 4 0.000000 14.318000 44.825001 23.347980 # Cc LIG
253 101 4 0.000000 1.309000 7.272000 18.795979 # Cc LIG
254 101 4 0.000000 14.318000 29.804001 18.795979 # Cc LIG
255 101 2 0.000000 10.736000 14.699000 19.861980 # Ca LIG
256 101 2 0.000000 23.745001 37.230000 19.861980 # Ca LIG
257 101 4 0.000000 11.699000 15.259000 22.176979 # Cc LIG
258 101 4 0.000000 24.708000 37.791000 22.176979 # Cc LIG
259 101 4 0.000000 11.699000 0.238000 17.624979 # Cc LIG
260 101 4 0.000000 24.708000 22.770000 17.624979 # Cc LIG
261 101 3 0.000000 11.871000 14.884000 20.804979 # Cb LIG
262 101 3 0.000000 24.879999 37.415001 20.804979 # Cb LIG
263 101 5 0.000000 12.860000 0.367000 18.396980 # Cd LIG
264 101 5 0.000000 25.868999 22.899000 18.396980 # Cd LIG
265 101 5 0.000000 12.860000 15.388000 22.949980 # Cd LIG
266 101 5 0.000000 25.868000 37.919998 22.949980 # Cd LIG
267 101 5 0.000000 13.157000 14.654000 20.299980 # Cd LIG
268 101 5 0.000000 0.149000 37.185001 20.299980 # Cd LIG
269 101 3 0.000000 14.146000 15.158000 22.443979 # Cb LIG
270 101 3 0.000000 1.137000 37.689999 22.443979 # Cb LIG
271 101 3 0.000000 14.146000 0.137000 17.891979 # Cb LIG
272 101 3 0.000000 1.137000 22.669001 17.891979 # Cb LIG
273 101 4 0.000000 14.318000 14.783000 21.071980 # Cc LIG
274 101 4 0.000000 1.309000 37.313999 21.071980 # Cc LIG
275 101 2 0.000000 15.281000 0.322000 18.834980 # Ca LIG
276 101 2 0.000000 2.272000 22.854000 18.834980 # Ca LIG
277 101 2 0.000000 15.281000 15.343000 23.386980 # Ca LIG
278 101 2 0.000000 2.272000 37.875000 23.386980 # Ca LIG
279 101 2 0.000000 18.098000 13.072000 18.833981 # Ca LIG
280 101 2 0.000000 5.089000 35.604000 18.833981 # Ca LIG
281 101 4 0.000000 18.652000 2.740000 21.071980 # Cc LIG
282 101 4 0.000000 5.643000 25.271999 21.071980 # Cc LIG
283 101 2 0.000000 18.656000 1.626000 23.386980 # Ca LIG
284 101 2 0.000000 5.647000 24.158001 23.386980 # Ca LIG
285 101 3 0.000000 18.825001 12.182000 17.891979 # Cb LIG
286 101 3 0.000000 5.816000 34.714001 17.891979 # Cb LIG
287 101 3 0.000000 19.063000 2.701000 22.443979 # Cb LIG
288 101 3 0.000000 6.055000 25.233000 22.443979 # Cb LIG
289 101 5 0.000000 19.120001 3.810000 20.299980 # Cd LIG
290 101 5 0.000000 6.111000 26.341999 20.299980 # Cd LIG
291 101 5 0.000000 19.268999 10.953000 18.396980 # Cd LIG
292 101 5 0.000000 6.260000 33.485001 18.396980 # Cd LIG
293 101 5 0.000000 19.906000 3.700000 22.948978 # Cd LIG
294 101 5 0.000000 6.897000 26.232000 22.948978 # Cd LIG
295 101 2 0.000000 2.272000 7.833000 21.110979 # Ca LIG
296 101 2 0.000000 15.281000 30.364000 21.110979 # Ca LIG
297 101 3 0.000000 19.962000 4.809000 20.804979 # Cb LIG
298 101 3 0.000000 6.954000 27.341000 20.804979 # Cb LIG
299 101 4 0.000000 19.961000 10.013000 17.624979 # Cc LIG
300 101 4 0.000000 6.953000 32.543999 17.624979 # Cc LIG
301 101 2 0.000000 20.370001 5.884000 19.861980 # Ca LIG
302 101 2 0.000000 7.361000 28.416000 19.861980 # Ca LIG
303 101 4 0.000000 20.374001 4.770000 22.176979 # Cc LIG
304 101 4 0.000000 7.366000 27.302000 22.176979 # Cc LIG
305 101 2 0.000000 5.089000 5.562000 23.386980 # Ca LIG
306 101 2 0.000000 18.098000 28.093000 23.386980 # Ca LIG
307 101 2 0.000000 5.089000 20.583000 21.110979 # Ca LIG
308 101 2 0.000000 18.098000 43.115002 21.110979 # Ca LIG
309 101 4 0.000000 5.643000 10.251000 23.347980 # Cc LIG
310 101 4 0.000000 18.652000 32.783001 23.347980 # Cc LIG
311 101 2 0.000000 5.647000 9.137000 18.834980 # Ca LIG
312 101 2 0.000000 18.656000 31.667999 18.834980 # Ca LIG
313 101 3 0.000000 5.816000 4.671000 22.443979 # Cb LIG
314 101 3 0.000000 18.825001 27.202999 22.443979 # Cb LIG
315 101 3 0.000000 5.817000 19.693001 20.167980 # Cb LIG
316 101 3 0.000000 18.825001 42.223999 20.167980 # Cb LIG
317 101 4 0.000000 6.056000 5.008000 21.071980 # Cc LIG
318 101 4 0.000000 19.065001 27.540001 21.071980 # Cc LIG
319 101 4 0.000000 6.056000 20.028999 18.795979 # Cc LIG
320 101 4 0.000000 19.063999 42.561001 18.795979 # Cc LIG
321 101 3 0.000000 6.055000 10.212000 17.891979 # Cb LIG
322 101 3 0.000000 19.063000 32.743000 17.891979 # Cb LIG
323 101 5 0.000000 6.111000 11.321000 22.575979 # Cd LIG
324 101 5 0.000000 19.120001 33.852001 22.575979 # Cd LIG
325 101 5 0.000000 6.260000 3.443000 22.948978 # Cd LIG
326 101 5 0.000000 19.268999 25.974001 22.948978 # Cd LIG
327 101 5 0.000000 6.261000 18.464001 20.672979 # Cd LIG
328 101 5 0.000000 19.268999 40.994999 20.672979 # Cd LIG
329 101 5 0.000000 6.748000 4.068000 20.299980 # Cd LIG
330 101 5 0.000000 19.757000 26.599001 20.299980 # Cd LIG
331 101 5 0.000000 6.748000 19.089001 18.022980 # Cd LIG
332 101 5 0.000000 19.757000 41.619999 18.022980 # Cd LIG
333 101 5 0.000000 6.897000 11.211000 18.396980 # Cd LIG
334 101 5 0.000000 19.906000 33.742001 18.396980 # Cd LIG
335 101 3 0.000000 6.954000 12.320000 23.080978 # Cb LIG
336 101 3 0.000000 19.962000 34.851002 23.080978 # Cb LIG
337 101 4 0.000000 6.953000 2.502000 22.176979 # Cc LIG
338 101 4 0.000000 19.961000 25.034000 22.176979 # Cc LIG
339 101 4 0.000000 6.953000 17.523001 19.900980 # Cc LIG
340 101 4 0.000000 19.961000 40.055000 19.900980 # Cc LIG
341 101 3 0.000000 7.192000 2.839000 20.804979 # Cb LIG
342 101 3 0.000000 20.201000 25.371000 20.804979 # Cb LIG
343 101 3 0.000000 7.192000 17.860001 18.527981 # Cb LIG
344 101 3 0.000000 20.201000 40.390999 18.527981 # Cb LIG
345 101 2 0.000000 7.361000 13.395000 22.137980 # Ca LIG
346 101 2 0.000000 20.370001 35.925999 22.137980 # Ca LIG
347 101 4 0.000000 7.366000 12.281000 17.624979 # Cc LIG
348 101 4 0.000000 20.374001 34.812000 17.624979 # Cc LIG
349 101 2 0.000000 7.919000 1.949000 19.861980 # Ca LIG
350 101 2 0.000000 20.927999 24.480000 19.861980 # Ca LIG
351 101 2 0.000000 7.919000 16.969999 17.585979 # Ca LIG
352 101 2 0.000000 20.927999 39.500999 17.585979 # Ca LIG
353 101 6 0.000000 25.764999 8.173000 21.715981 # H LIG
354 101 6 0.000000 12.756000 30.704000 21.715981 # H LIG
355 101 6 0.000000 20.212999 18.664000 21.715981 # H LIG
356 101 6 0.000000 7.204000 41.195999 21.715981 # H LIG
357 101 6 0.000000 19.961000 11.816000 21.532980 # H LIG
358 101 6 0.000000 6.952000 34.347000 21.532980 # H LIG
359 101 6 0.000000 18.813000 18.889000 23.808979 # H LIG
360 101 6 0.000000 5.805000 41.419998 23.808979 # H LIG
361 101 6 0.000000 0.252000 6.849000 23.808979 # H LIG
362 101 6 0.000000 13.261000 29.379999 23.808979 # H LIG
363 101 6 0.000000 0.252000 21.870001 21.532980 # H LIG
364 101 6 0.000000 13.261000 44.401001 21.532980 # H LIG
365 101 6 0.000000 12.756000 0.662000 19.439980 # H LIG
366 101 6 0.000000 25.764999 23.194000 19.439980 # H LIG
367 101 6 0.000000 12.756000 15.683000 17.163979 # H LIG
368 101 6 0.000000 25.764999 38.215000 17.163979 # H LIG
369 101 6 0.000000 13.261000 14.359000 19.255980 # H LIG
370 101 6 0.000000 0.252000 36.890999 19.255980 # H LIG
371 101 6 0.000000 18.813000 3.868000 19.256979 # H LIG
372 101 6 0.000000 5.804000 26.399000 19.256979 # H LIG
373 101 6 0.000000 19.065001 10.716000 19.439980 # H LIG
374 101 6 0.000000 6.057000 33.248001 19.439980 # H LIG
375 101 6 0.000000 20.212999 3.643000 17.163979 # H LIG
376 101 6 0.000000 7.204000 26.174000 17.163979 # H LIG
377 101 6 0.000000 5.804000 11.378000 21.532980 # H LIG
378 101 6 0.000000 18.813000 33.910000 21.532980 # H LIG
379 101 6 0.000000 6.057000 3.205000 17.163979 # H LIG
380 101 6 0.000000 19.065001 25.737000 17.163979 # H LIG
381 101 6 0.000000 6.057000 18.226999 21.715981 # H LIG
382 101 6 0.000000 19.066000 40.757999 21.715981 # H LIG
383 101 6 0.000000 6.952000 4.305000 19.256979 # H LIG
384 101 6 0.000000 19.959999 26.837000 19.256979 # H LIG
385 101 6 0.000000 6.951000 19.326000 23.808979 # H LIG
386 101 6 0.000000 19.959999 41.856998 23.808979 # H LIG
387 101 6 0.000000 7.204000 11.153000 19.439980 # H LIG
388 101 6 0.000000 20.212999 33.685001 19.439980 # H LIG
389 101 7 0.000000 22.488001 21.886000 19.548981 # Ni LIG
390 101 7 0.000000 9.479000 44.417999 19.548981 # Ni LIG
391 101 7 0.000000 20.719000 22.156000 21.825979 # Ni LIG
392 101 7 0.000000 7.710000 44.687000 21.825979 # Ni LIG
393 101 7 0.000000 8.828000 1.021000 17.272980 # Ni LIG
394 101 7 0.000000 21.837000 23.552999 17.272980 # Ni LIG
395 101 7 0.000000 16.538000 0.645000 21.423981 # Ni LIG
396 101 7 0.000000 3.529000 23.177000 21.423981 # Ni LIG
397 101 7 0.000000 18.306999 0.376000 19.147980 # Ni LIG
398 101 7 0.000000 5.299000 22.908001 19.147980 # Ni LIG
399 101 7 0.000000 4.181000 21.510000 23.699980 # Ni LIG
400 101 7 0.000000 17.188999 44.042000 23.699980 # Ni LIG
401 101 7 0.000000 22.488001 6.865000 21.824980 # Ni LIG
402 101 7 0.000000 9.479000 29.396999 21.824980 # Ni LIG
403 101 7 0.000000 21.837000 8.532000 19.548981 # Ni LIG
404 101 7 0.000000 8.828000 31.063000 19.548981 # Ni LIG
405 101 7 0.000000 20.718000 7.135000 17.272980 # Ni LIG
406 101 7 0.000000 7.710000 29.666000 17.272980 # Ni LIG
407 101 7 0.000000 3.529000 8.156000 23.699980 # Ni LIG
408 101 7 0.000000 16.538000 30.688000 23.699980 # Ni LIG
409 101 7 0.000000 4.180000 6.489000 19.147980 # Ni LIG
410 101 7 0.000000 17.188999 29.021000 19.147980 # Ni LIG
411 101 7 0.000000 5.299000 7.886000 21.423981 # Ni LIG
412 101 7 0.000000 18.306999 30.417999 21.423981 # Ni LIG
413 101 7 0.000000 7.710000 14.645000 19.548981 # Ni LIG
414 101 7 0.000000 20.719000 37.176998 19.548981 # Ni LIG
415 101 7 0.000000 8.828000 16.042000 21.824980 # Ni LIG
416 101 7 0.000000 21.837000 38.574001 21.824980 # Ni LIG
417 101 7 0.000000 9.479000 14.375000 17.272980 # Ni LIG
418 101 7 0.000000 22.488001 36.907001 17.272980 # Ni LIG
419 101 7 0.000000 18.306999 15.397000 23.699980 # Ni LIG
420 101 7 0.000000 5.299000 37.929001 23.699980 # Ni LIG
421 101 7 0.000000 16.538000 15.666000 19.146980 # Ni LIG
422 101 7 0.000000 3.529000 38.198002 19.146980 # Ni LIG
423 101 7 0.000000 17.188999 14.000000 21.423981 # Ni LIG
424 101 7 0.000000 4.180000 36.530998 21.423981 # Ni LIG
425 101 9 0.000000 23.941000 21.823999 0.459500 # Ob LIG
426 101 9 0.000000 10.932000 44.355999 0.459500 # Ob LIG
427 101 9 0.000000 23.941000 6.803000 2.735500 # Ob LIG
428 101 9 0.000000 10.932000 29.334000 2.735500 # Ob LIG
429 101 10 0.000000 23.514999 7.995000 0.005500 # Oc LIG
430 101 10 0.000000 10.506000 30.527000 0.005500 # Oc LIG
431 101 8 0.000000 22.554001 7.442000 24.851978 # Oa LIG
432 101 8 0.000000 9.546000 29.973000 24.851978 # Oa LIG
433 101 8 0.000000 22.554001 22.462999 2.089500 # Oa LIG
434 101 8 0.000000 9.546000 44.993999 2.089500 # Oa LIG
435 101 8 0.000000 21.304001 8.301000 2.089500 # Oa LIG
436 101 8 0.000000 8.295000 30.833000 2.089500 # Oa LIG
437 101 9 0.000000 21.164000 9.821000 0.459500 # Ob LIG
438 101 9 0.000000 8.155000 32.353001 0.459500 # Ob LIG
439 101 10 0.000000 21.184000 20.701000 0.005500 # Oc LIG
440 101 10 0.000000 8.176000 43.233002 0.005500 # Oc LIG
441 101 8 0.000000 21.184999 21.809999 24.851978 # Oa LIG
442 101 8 0.000000 8.176000 44.341000 24.851978 # Oa LIG
443 101 9 0.000000 19.938000 20.927999 2.735500 # Ob LIG
444 101 9 0.000000 6.930000 43.459999 2.735500 # Ob LIG
445 101 9 0.000000 19.087999 16.624001 1.816500 # Ob LIG
446 101 9 0.000000 6.079000 39.155998 1.816500 # Ob LIG
447 101 10 0.000000 18.681999 13.676000 2.270500 # Oc LIG
448 101 10 0.000000 5.673000 36.207001 2.270500 # Oc LIG
449 101 8 0.000000 17.841000 15.743000 0.186500 # Oa LIG
450 101 8 0.000000 4.833000 38.275002 0.186500 # Oa LIG
451 101 10 0.000000 17.841999 16.851000 25.033979 # Oc LIG
452 101 10 0.000000 4.833000 39.382999 25.033979 # Oc LIG
453 101 10 0.000000 10.506000 0.485000 25.043980 # Oc LIG
454 101 10 0.000000 23.514999 23.017000 25.043980 # Oc LIG
455 101 10 0.000000 10.506000 15.506000 2.281500 # Oc LIG
456 101 10 0.000000 23.514999 38.036999 2.281500 # Oc LIG
457 101 9 0.000000 10.932000 14.313000 25.497980 # Ob LIG
458 101 9 0.000000 23.941000 36.845001 25.497980 # Ob LIG
459 101 9 0.000000 15.085000 0.708000 26.855980 # Ob LIG
460 101 9 0.000000 2.076000 23.239000 26.855980 # Ob LIG
461 101 9 0.000000 15.085000 15.729000 24.579979 # Ob LIG
462 101 9 0.000000 2.077000 38.259998 24.579979 # Ob LIG
463 101 10 0.000000 15.511000 14.536000 27.309978 # Oc LIG
464 101 10 0.000000 2.503000 37.068001 27.309978 # Oc LIG
465 101 8 0.000000 16.471001 15.090000 2.462500 # Oa LIG
466 101 8 0.000000 3.463000 37.620998 2.462500 # Oa LIG
467 101 8 0.000000 16.471001 0.069000 25.225979 # Oa LIG
468 101 8 0.000000 3.463000 22.601000 25.225979 # Oa LIG
469 101 8 0.000000 17.722000 14.230000 25.225979 # Oa LIG
470 101 8 0.000000 4.713000 36.762001 25.225979 # Oa LIG
471 101 9 0.000000 17.862000 12.710000 26.855980 # Ob LIG
472 101 9 0.000000 4.853000 35.242001 26.855980 # Ob LIG
473 101 10 0.000000 17.841000 1.831000 27.309978 # Oc LIG
474 101 10 0.000000 4.833000 24.362000 27.309978 # Oc LIG
475 101 8 0.000000 17.841000 0.722000 2.462500 # Oa LIG
476 101 8 0.000000 4.833000 23.254000 2.462500 # Oa LIG
477 101 9 0.000000 19.087000 1.603000 24.579979 # Ob LIG
478 101 9 0.000000 6.079000 24.135000 24.579979 # Ob LIG
479 101 9 0.000000 19.938000 5.907000 25.497980 # Ob LIG
480 101 9 0.000000 6.930000 28.438999 25.497980 # Ob LIG
481 101 9 0.000000 2.076000 8.218000 1.816500 # Ob LIG
482 101 9 0.000000 15.085000 30.750000 1.816500 # Ob LIG
483 101 10 0.000000 2.503000 7.026000 25.033979 # Oc LIG
484 101 10 0.000000 15.511000 29.556999 25.033979 # Oc LIG
485 101 10 0.000000 2.503000 22.047001 2.270500 # Oc LIG
486 101 10 0.000000 15.511000 44.577999 2.270500 # Oc LIG
487 101 10 0.000000 20.344000 8.856000 25.044979 # Oc LIG
488 101 10 0.000000 7.336000 31.388000 25.044979 # Oc LIG
489 101 8 0.000000 21.184999 6.789000 27.128979 # Oa LIG
490 101 8 0.000000 8.176000 29.320000 27.128979 # Oa LIG
491 101 10 0.000000 21.184000 5.680000 2.281500 # Oc LIG
492 101 10 0.000000 8.176000 28.212000 2.281500 # Oc LIG
493 101 8 0.000000 3.463000 7.579000 0.186500 # Oa LIG
494 101 8 0.000000 16.471001 30.111000 0.186500 # Oa LIG
495 101 8 0.000000 4.713000 6.720000 2.462500 # Oa LIG
496 101 8 0.000000 17.722000 29.250999 2.462500 # Oa LIG
497 101 8 0.000000 4.713000 21.740999 0.186500 # Oa LIG
498 101 8 0.000000 17.722000 44.271999 0.186500 # Oa LIG
499 101 9 0.000000 4.853000 5.200000 24.579979 # Ob LIG
500 101 9 0.000000 17.862000 27.731001 24.579979 # Ob LIG
501 101 9 0.000000 4.853000 20.221001 1.816500 # Ob LIG
502 101 9 0.000000 17.862000 42.751999 1.816500 # Ob LIG
503 101 10 0.000000 4.833000 9.341000 2.270500 # Oc LIG
504 101 10 0.000000 17.841000 31.872999 2.270500 # Oc LIG
505 101 8 0.000000 4.833000 8.232000 25.225979 # Oa LIG
506 101 8 0.000000 17.841000 30.764000 25.225979 # Oa LIG
507 101 10 0.000000 5.673000 6.165000 27.309978 # Oc LIG
508 101 10 0.000000 18.681999 28.697001 27.309978 # Oc LIG
509 101 10 0.000000 5.673000 21.186001 25.033979 # Oc LIG
510 101 10 0.000000 18.681000 43.717999 25.033979 # Oc LIG
511 101 9 0.000000 6.079000 9.114000 26.855980 # Ob LIG
512 101 9 0.000000 19.087000 31.645000 26.855980 # Ob LIG
513 101 9 0.000000 6.930000 13.418000 0.459500 # Ob LIG
514 101 9 0.000000 19.938000 35.949001 0.459500 # Ob LIG
515 101 10 0.000000 7.336000 1.345000 2.281500 # Oc LIG
516 101 10 0.000000 20.344000 23.877001 2.281500 # Oc LIG
517 101 10 0.000000 7.336000 16.365999 0.005500 # Oc LIG
518 101 10 0.000000 20.344000 38.897999 0.005500 # Oc LIG
519 101 8 0.000000 8.176000 14.299000 2.089500 # Oa LIG