LAMMPS data file. CGCMM style. atom_style full generated by VMD/TopoTools v1.5 on Sun Jun 11 11:09:08 PDT 2017
 1461 atoms
 78 bonds
 0 angles
 0 dihedrals
 0 impropers
 11 atom types
 1 bond types
 0 angle types
 0 dihedral types
 0 improper types
 1.889239 45.665240  xlo xhi
 -2.142577 41.617421  ylo yhi
 -0.021506 27.658494  zlo zhi

# Pair Coeffs
#
# 1  Ca
# 2  Cb
# 3  Cc
# 4  Cd
# 5  Cg
# 6  H
# 7  Mg
# 8  Oa
# 9  Ob
# 10  Oc
# 11  Og

 Masses

 1 12.011000 # Ca
 2 12.011000 # Cb
 3 12.011000 # Cc
 4 12.011000 # Cd
 5 12.011000 # Cg
 6 1.008000 # H
 7 24.305000 # Mg
 8 15.999000 # Oa
 9 15.999000 # Ob
 10 15.999000 # Oc
 11 15.999000 # Og

 Atoms

1 1 11 -0.325600 19.156219 29.125345 20.772989 # Og 
2 1 5 0.651200 19.156219 29.125345 19.612988 # Cg 
3 1 11 -0.325600 19.156219 29.125345 18.452988 # Og 
4 2 11 -0.325600 19.152388 29.153452 2.320000 # Og 
5 2 5 0.651200 19.152388 29.153452 1.160000 # Cg 
6 2 11 -0.325600 19.152388 29.153452 0.000000 # Og 
7 3 11 -0.325600 19.154388 29.156450 11.547000 # Og 
8 3 5 0.651200 19.154388 29.156450 10.387000 # Cg 
9 3 11 -0.325600 19.154388 29.156450 9.227000 # Og 
10 4 11 -0.325600 13.684219 38.599346 20.772989 # Og 
11 4 5 0.651200 13.684219 38.599346 19.612988 # Cg 
12 4 11 -0.325600 13.684219 38.599346 18.452988 # Og 
13 5 11 -0.325600 13.681389 38.626453 2.320000 # Og 
14 5 5 0.651200 13.681389 38.626453 1.160000 # Cg 
15 5 11 -0.325600 13.681389 38.626453 0.000000 # Og 
16 6 11 -0.325600 13.682388 38.629452 11.547000 # Og 
17 6 5 0.651200 13.682388 38.629452 10.387000 # Cg 
18 6 11 -0.325600 13.682388 38.629452 9.227000 # Og 
19 7 11 -0.325600 30.099833 10.178894 20.772989 # Og 
20 7 5 0.651200 30.099833 10.178894 19.612988 # Cg 
21 7 11 -0.325600 30.099833 10.178894 18.452988 # Og 
22 8 11 -0.325600 30.096001 10.207000 2.320000 # Og 
23 8 5 0.651200 30.096001 10.207000 1.160000 # Cg 
24 8 11 -0.325600 30.096001 10.207000 0.000000 # Og 
25 9 11 -0.325600 30.098001 10.209000 11.547000 # Og 
26 9 5 0.651200 30.098001 10.209000 10.387000 # Cg 
27 9 11 -0.325600 30.098001 10.209000 9.227000 # Og 
28 10 11 -0.325600 24.627832 19.651894 20.772989 # Og 
29 10 5 0.651200 24.627832 19.651894 19.612988 # Cg 
30 10 11 -0.325600 24.627832 19.651894 18.452988 # Og 
31 11 11 -0.325600 24.625002 19.680000 2.320000 # Og 
32 11 5 0.651200 24.625002 19.680000 1.160000 # Cg 
33 11 11 -0.325600 24.625002 19.680000 0.000000 # Og 
34 12 11 -0.325600 24.626001 19.683001 11.547000 # Og 
35 12 5 0.651200 24.626001 19.683001 10.387000 # Cg 
36 12 11 -0.325600 24.626001 19.683001 9.227000 # Og 
37 13 11 -0.325600 30.100220 29.125345 20.772989 # Og 
38 13 5 0.651200 30.100220 29.125345 19.612988 # Cg 
39 13 11 -0.325600 30.100220 29.125345 18.452988 # Og 
40 14 11 -0.325600 30.096388 29.153452 2.320000 # Og 
41 14 5 0.651200 30.096388 29.153452 1.160000 # Cg 
42 14 11 -0.325600 30.096388 29.153452 0.000000 # Og 
43 15 11 -0.325600 30.098387 29.156450 11.547000 # Og 
44 15 5 0.651200 30.098387 29.156450 10.387000 # Cg 
45 15 11 -0.325600 30.098387 29.156450 9.227000 # Og 
46 16 11 -0.325600 24.628220 38.599346 20.772989 # Og 
47 16 5 0.651200 24.628220 38.599346 19.612988 # Cg 
48 16 11 -0.325600 24.628220 38.599346 18.452988 # Og 
49 17 11 -0.325600 24.625387 38.626453 2.320000 # Og 
50 17 5 0.651200 24.625387 38.626453 1.160000 # Cg 
51 17 11 -0.325600 24.625387 38.626453 0.000000 # Og 
52 18 11 -0.325600 24.626387 38.629452 11.547000 # Og 
53 18 5 0.651200 24.626387 38.629452 10.387000 # Cg 
54 18 11 -0.325600 24.626387 38.629452 9.227000 # Og 
55 19 11 -0.325600 41.043835 10.178894 20.772989 # Og 
56 19 5 0.651200 41.043835 10.178894 19.612988 # Cg 
57 19 11 -0.325600 41.043835 10.178894 18.452988 # Og 
58 20 11 -0.325600 41.040001 10.207000 2.320000 # Og 
59 20 5 0.651200 41.040001 10.207000 1.160000 # Cg 
60 20 11 -0.325600 41.040001 10.207000 0.000000 # Og 
61 21 11 -0.325600 41.042000 10.209000 11.547000 # Og 
62 21 5 0.651200 41.042000 10.209000 10.387000 # Cg 
63 21 11 -0.325600 41.042000 10.209000 9.227000 # Og 
64 22 11 -0.325600 35.571835 19.651894 20.772989 # Og 
65 22 5 0.651200 35.571835 19.651894 19.612988 # Cg 
66 22 11 -0.325600 35.571835 19.651894 18.452988 # Og 
67 23 11 -0.325600 35.569000 19.680000 2.320000 # Og 
68 23 5 0.651200 35.569000 19.680000 1.160000 # Cg 
69 23 11 -0.325600 35.569000 19.680000 0.000000 # Og 
70 24 11 -0.325600 35.570000 19.683001 11.547000 # Og 
71 24 5 0.651200 35.570000 19.683001 10.387000 # Cg 
72 24 11 -0.325600 35.570000 19.683001 9.227000 # Og 
73 25 11 -0.325600 41.044220 29.125345 20.772989 # Og 
74 25 5 0.651200 41.044220 29.125345 19.612988 # Cg 
75 25 11 -0.325600 41.044220 29.125345 18.452988 # Og 
76 26 11 -0.325600 41.040386 29.153452 2.320000 # Og 
77 26 5 0.651200 41.040386 29.153452 1.160000 # Cg 
78 26 11 -0.325600 41.040386 29.153452 0.000000 # Og 
79 27 11 -0.325600 41.042389 29.156450 11.547000 # Og 
80 27 5 0.651200 41.042389 29.156450 10.387000 # Cg 
81 27 11 -0.325600 41.042389 29.156450 9.227000 # Og 
82 28 11 -0.325600 35.572220 38.599346 20.772989 # Og 
83 28 5 0.651200 35.572220 38.599346 19.612988 # Cg 
84 28 11 -0.325600 35.572220 38.599346 18.452988 # Og 
85 29 11 -0.325600 35.569389 38.626453 2.320000 # Og 
86 29 5 0.651200 35.569389 38.626453 1.160000 # Cg 
87 29 11 -0.325600 35.569389 38.626453 0.000000 # Og 
88 30 11 -0.325600 35.570389 38.629452 11.547000 # Og 
89 30 5 0.651200 35.570389 38.629452 10.387000 # Cg 
90 30 11 -0.325600 35.570389 38.629452 9.227000 # Og 
91 31 11 -0.325600 8.211832 10.178894 20.772989 # Og 
92 31 5 0.651200 8.211832 10.178894 19.612988 # Cg 
93 31 11 -0.325600 8.211832 10.178894 18.452988 # Og 
94 32 11 -0.325600 8.208000 10.207000 2.320000 # Og 
95 32 5 0.651200 8.208000 10.207000 1.160000 # Cg 
96 32 11 -0.325600 8.208000 10.207000 0.000000 # Og 
97 33 11 -0.325600 8.210000 10.209000 11.547000 # Og 
98 33 5 0.651200 8.210000 10.209000 10.387000 # Cg 
99 33 11 -0.325600 8.210000 10.209000 9.227000 # Og 
100 34 11 -0.325600 46.515835 19.651894 20.772989 # Og 
101 34 5 0.651200 46.515835 19.651894 19.612988 # Cg 
102 34 11 -0.325600 46.515835 19.651894 18.452988 # Og 
103 35 11 -0.325600 46.513000 19.680000 2.320000 # Og 
104 35 5 0.651200 46.513000 19.680000 1.160000 # Cg 
105 35 11 -0.325600 46.513000 19.680000 0.000000 # Og 
106 36 11 -0.325600 46.514000 19.683001 11.547000 # Og 
107 36 5 0.651200 46.514000 19.683001 10.387000 # Cg 
108 36 11 -0.325600 46.514000 19.683001 9.227000 # Og 
109 37 11 -0.325600 8.212217 29.125345 20.772989 # Og 
110 37 5 0.651200 8.212217 29.125345 19.612988 # Cg 
111 37 11 -0.325600 8.212217 29.125345 18.452988 # Og 
112 38 11 -0.325600 8.208385 29.153452 2.320000 # Og 
113 38 5 0.651200 8.208385 29.153452 1.160000 # Cg 
114 38 11 -0.325600 8.208385 29.153452 0.000000 # Og 
115 39 11 -0.325600 8.210386 29.156450 11.547000 # Og 
116 39 5 0.651200 8.210386 29.156450 10.387000 # Cg 
117 39 11 -0.325600 8.210386 29.156450 9.227000 # Og 
118 40 6 0.186000 23.398062 37.097843 22.712994 # H LIG
119 40 6 0.186000 28.529060 30.732845 18.235992 # H LIG
120 40 6 0.186000 28.505062 28.451845 24.192993 # H LIG
121 40 6 0.186000 27.286060 30.087845 20.400993 # H LIG
122 40 6 0.186000 10.296674 0.991393 21.867992 # H LIG
123 40 6 0.186000 30.210060 37.762844 22.837994 # H LIG
124 40 6 0.186000 31.421062 36.944843 18.100994 # H LIG
125 40 6 0.186000 21.333061 36.784843 19.557993 # H LIG
126 40 6 0.186000 23.297060 35.640846 20.527992 # H LIG
127 40 6 0.186000 42.357674 0.895393 18.805994 # H LIG
128 40 6 0.186000 32.281673 1.050393 17.348993 # H LIG
129 40 6 0.186000 34.243675 2.191393 23.295994 # H LIG
130 40 6 0.186000 39.514675 9.393394 19.663994 # H LIG
131 40 6 0.186000 34.349674 0.736393 21.112993 # H LIG
132 40 6 0.186000 39.535675 7.122394 18.690994 # H LIG
133 40 6 0.186000 41.148674 0.075392 20.986994 # H LIG
134 40 6 0.186000 21.234060 36.839844 21.959993 # H LIG
135 40 6 0.186000 38.199677 7.754394 23.422993 # H LIG
136 40 7 1.560000 26.851061 33.809845 18.408993 # Mg LIG
137 40 7 1.560000 28.410061 34.723843 23.022993 # Mg LIG
138 40 7 1.560000 26.833061 35.615845 20.716993 # Mg LIG
139 40 7 1.560000 37.779675 2.228392 23.105993 # Mg LIG
140 40 7 1.560000 37.793674 4.042393 18.494993 # Mg LIG
141 40 7 1.560000 39.353676 3.123393 20.800993 # Mg LIG
142 40 3 0.456000 27.957062 31.715845 23.336994 # Cc LIG
143 40 2 -0.314000 24.453060 36.095844 17.347994 # Cb LIG
144 40 4 -0.234000 23.337061 36.768845 23.750994 # Cd LIG
145 40 2 -0.314000 22.199060 37.042843 17.589993 # Cb LIG
146 40 4 -0.234000 28.233061 29.301846 23.563993 # Cd LIG
147 40 4 -0.234000 28.256062 30.573845 24.110992 # Cd LIG
148 40 1 0.900000 25.584061 35.841843 23.344994 # Ca LIG
149 40 3 0.456000 29.661060 36.736843 21.030994 # Cc LIG
150 40 2 -0.314000 27.621061 31.504845 21.958994 # Cb LIG
151 40 4 -0.234000 27.587061 30.197845 21.442993 # Cd LIG
152 40 2 -0.314000 27.901062 29.076845 22.209993 # Cb LIG
153 40 4 -0.234000 9.709674 0.311393 21.246994 # Cd LIG
154 40 4 -0.234000 30.488060 37.586845 21.796993 # Cd LIG
155 40 1 0.900000 27.282063 32.608845 21.033993 # Ca LIG
156 40 3 0.456000 24.463060 35.687843 18.721992 # Cc LIG
157 40 2 -0.314000 30.018061 36.539845 19.655994 # Cb LIG
158 40 4 -0.234000 31.168060 37.162846 19.138992 # Cd LIG
159 40 2 -0.314000 10.082674 0.115392 19.898994 # Cb LIG
160 40 4 -0.234000 22.216061 36.620846 18.936993 # Cd LIG
161 40 4 -0.234000 23.310061 35.971844 19.487993 # Cd LIG
162 40 1 0.900000 29.233061 35.692844 18.731995 # Ca LIG
163 40 3 0.456000 35.409676 2.154393 18.180992 # Cc LIG
164 40 2 -0.314000 40.959675 1.300393 24.167994 # Cb LIG
165 40 4 -0.234000 42.104675 0.678393 17.766994 # Cd LIG
166 40 2 -0.314000 21.022060 37.716843 23.926994 # Cb LIG
167 40 4 -0.234000 33.165676 1.216393 17.967995 # Cd LIG
168 40 4 -0.234000 34.256676 1.867393 17.416992 # Cd LIG
169 40 1 0.900000 40.176674 2.158393 18.171993 # Ca LIG
170 40 3 0.456000 38.909676 6.131393 20.491993 # Cc LIG
171 40 2 -0.314000 35.401676 1.746393 19.554993 # Cb LIG
172 40 4 -0.234000 34.286674 1.065393 20.074993 # Cd LIG
173 40 2 -0.314000 33.149673 0.795393 19.314995 # Cb LIG
174 40 4 -0.234000 39.214676 8.544393 20.281994 # Cd LIG
175 40 4 -0.234000 39.237675 7.274392 19.729994 # Cd LIG
176 40 1 0.900000 36.530674 1.999393 20.477993 # Ca LIG
177 40 3 0.456000 40.603676 1.105393 22.793993 # Cc LIG
178 40 2 -0.314000 38.556675 6.340393 21.865993 # Cb LIG
179 40 4 -0.234000 38.517673 7.647393 22.384995 # Cd LIG
180 40 2 -0.314000 38.849674 8.768394 21.626993 # Cb LIG
181 40 4 -0.234000 20.649061 37.521843 22.579994 # Cd LIG
182 40 4 -0.234000 41.427673 0.250393 22.027994 # Cd LIG
183 40 1 0.900000 38.215675 5.235394 22.788994 # Ca LIG
184 40 10 -0.903000 39.534676 1.678393 22.210993 # Oc LIG
185 40 8 -0.899000 38.339676 4.019393 22.360992 # Oa LIG
186 40 9 -0.752000 40.569675 2.373393 19.362993 # Ob LIG
187 40 10 -0.903000 38.953674 4.920393 19.907993 # Oc LIG
188 40 8 -0.899000 37.522675 2.714392 20.051994 # Oa LIG
189 40 9 -0.752000 37.831676 5.466393 23.979994 # Ob LIG
190 40 10 -0.903000 36.437675 2.796393 17.598993 # Oc LIG
191 40 8 -0.899000 39.062675 2.662392 17.744993 # Oa LIG
192 40 9 -0.752000 36.521675 1.549392 21.668993 # Ob LIG
193 40 10 -0.903000 25.493061 35.048843 19.304993 # Oc LIG
194 40 8 -0.899000 28.117062 35.192844 19.156994 # Oa LIG
195 40 9 -0.752000 25.573061 36.290844 22.153994 # Ob LIG
196 40 10 -0.903000 28.008060 32.928844 23.914993 # Oc LIG
197 40 8 -0.899000 26.579062 35.131844 23.770994 # Oa LIG
198 40 9 -0.752000 26.903061 32.376846 19.841993 # Ob LIG
199 40 10 -0.903000 28.589062 36.169846 21.611994 # Oc LIG
200 40 8 -0.899000 27.400061 33.824844 21.461994 # Oa LIG
201 40 9 -0.752000 29.626060 35.476845 17.539993 # Ob LIG
202 40 6 0.186000 23.394436 37.125042 1.953001 # H LIG
203 40 6 0.186000 28.530270 30.734938 25.155991 # H LIG
204 40 6 0.186000 28.501436 28.479042 3.433002 # H LIG
205 40 6 0.186000 27.287270 30.089937 27.320990 # H LIG
206 40 6 0.186000 10.293049 1.018591 1.108001 # H LIG
207 40 6 0.186000 30.206436 37.790043 2.078001 # H LIG
208 40 6 0.186000 31.422268 36.946938 25.020990 # H LIG
209 40 6 0.186000 21.334269 36.786938 26.477989 # H LIG
210 40 6 0.186000 23.298269 35.642937 27.447990 # H LIG
211 40 6 0.186000 42.358883 0.897485 25.725990 # H LIG
212 40 6 0.186000 32.282883 1.052485 24.268990 # H LIG
213 40 6 0.186000 34.240051 2.218591 2.536001 # H LIG
214 40 6 0.186000 39.515884 9.395486 26.583990 # H LIG
215 40 6 0.186000 34.346050 0.763591 0.353001 # H LIG
216 40 6 0.186000 39.536884 7.124486 25.610991 # H LIG
217 40 6 0.186000 41.145050 0.102591 0.227001 # H LIG
218 40 6 0.186000 21.230436 36.867043 1.200001 # H LIG
219 40 6 0.186000 38.196053 7.781591 2.663002 # H LIG
220 40 7 1.560000 26.852268 33.811935 25.328991 # Mg LIG
221 40 7 1.560000 28.406437 34.751041 2.263001 # Mg LIG
222 40 7 1.560000 26.834269 35.617935 27.636990 # Mg LIG
223 40 7 1.560000 37.776051 2.255590 2.346002 # Mg LIG
224 40 7 1.560000 37.794884 4.044485 25.414989 # Mg LIG
225 40 7 1.560000 39.350052 3.150591 0.041001 # Mg LIG
226 40 3 0.456000 27.953436 31.743042 2.577002 # Cc LIG
227 40 2 -0.314000 24.454269 36.097939 24.267990 # Cb LIG
228 40 4 -0.234000 23.333437 36.796043 2.991002 # Cd LIG
229 40 2 -0.314000 22.200268 37.044937 24.509991 # Cb LIG
230 40 4 -0.234000 28.229437 29.329042 2.804001 # Cd LIG
231 40 4 -0.234000 28.252438 30.601044 3.351001 # Cd LIG
232 40 1 0.900000 25.580437 35.869041 2.585001 # Ca LIG
233 40 3 0.456000 29.657436 36.764042 0.271001 # Cc LIG
234 40 2 -0.314000 27.617437 31.532043 1.199001 # Cb LIG
235 40 4 -0.234000 27.583437 30.225042 0.683002 # Cd LIG
236 40 2 -0.314000 27.897436 29.104042 1.450001 # Cb LIG
237 40 4 -0.234000 9.706049 0.338591 0.487001 # Cd LIG
238 40 4 -0.234000 30.484436 37.614044 1.037002 # Cd LIG
239 40 1 0.900000 27.278437 32.636044 0.274001 # Ca LIG
240 40 3 0.456000 24.464270 35.689938 25.641991 # Cc LIG
241 40 2 -0.314000 30.019268 36.541935 26.575991 # Cb LIG
242 40 4 -0.234000 31.169270 37.164936 26.058990 # Cd LIG
243 40 2 -0.314000 10.083882 0.117485 26.818991 # Cb LIG
244 40 4 -0.234000 22.217268 36.622936 25.856991 # Cd LIG
245 40 4 -0.234000 23.311268 35.973938 26.407990 # Cd LIG
246 40 1 0.900000 29.234268 35.694939 25.651991 # Ca LIG
247 40 3 0.456000 35.410881 2.156485 25.100990 # Cc LIG
248 40 2 -0.314000 40.956051 1.327591 3.408001 # Cb LIG
249 40 4 -0.234000 42.105881 0.680485 24.686991 # Cd LIG
250 40 2 -0.314000 21.018436 37.744041 3.167001 # Cb LIG
251 40 4 -0.234000 33.166882 1.218486 24.887991 # Cd LIG
252 40 4 -0.234000 34.257881 1.869486 24.336990 # Cd LIG
253 40 1 0.900000 40.177883 2.160485 25.091990 # Ca LIG
254 40 3 0.456000 38.910881 6.133486 27.411991 # Cc LIG
255 40 2 -0.314000 35.402882 1.748485 26.474991 # Cb LIG
256 40 4 -0.234000 34.287884 1.067486 26.994991 # Cd LIG
257 40 2 -0.314000 33.150883 0.797485 26.234991 # Cb LIG
258 40 4 -0.234000 39.215881 8.546485 27.201990 # Cd LIG
259 40 4 -0.234000 39.238884 7.276484 26.649990 # Cd LIG
260 40 1 0.900000 36.531883 2.001486 27.397991 # Ca LIG
261 40 3 0.456000 40.600052 1.132591 2.034001 # Cc LIG
262 40 2 -0.314000 38.553051 6.367591 1.106001 # Cb LIG
263 40 4 -0.234000 38.514050 7.674591 1.625001 # Cd LIG
264 40 2 -0.314000 38.846050 8.795591 0.867002 # Cb LIG
265 40 4 -0.234000 20.645437 37.549042 1.820002 # Cd LIG
266 40 4 -0.234000 41.424049 0.277591 1.268002 # Cd LIG
267 40 1 0.900000 38.212051 5.262591 2.029001 # Ca LIG
268 40 10 -0.903000 39.531052 1.705591 1.451001 # Oc LIG
269 40 8 -0.899000 38.336052 4.046591 1.601001 # Oa LIG
270 40 9 -0.752000 40.570881 2.375485 26.282990 # Ob LIG
271 40 10 -0.903000 38.954884 4.922485 26.827990 # Oc LIG
272 40 8 -0.899000 37.523884 2.716485 26.971991 # Oa LIG
273 40 9 -0.752000 37.828049 5.493591 3.220001 # Ob LIG
274 40 10 -0.903000 36.438881 2.798486 24.518990 # Oc LIG
275 40 8 -0.899000 39.063881 2.664485 24.664989 # Oa LIG
276 40 9 -0.752000 36.518051 1.576591 0.909001 # Ob LIG
277 40 10 -0.903000 25.494268 35.050938 26.224991 # Oc LIG
278 40 8 -0.899000 28.118269 35.194939 26.076990 # Oa LIG
279 40 9 -0.752000 25.569437 36.318043 1.394001 # Ob LIG
280 40 10 -0.903000 28.004436 32.956043 3.155001 # Oc LIG
281 40 8 -0.899000 26.575438 35.159042 3.011002 # Oa LIG
282 40 9 -0.752000 26.904268 32.378937 26.761990 # Ob LIG
283 40 10 -0.903000 28.585436 36.197044 0.852001 # Oc LIG
284 40 8 -0.899000 27.396437 33.852043 0.702002 # Oa LIG
285 40 9 -0.752000 29.627270 35.478935 24.459990 # Ob LIG
286 40 6 0.186000 23.395645 37.127136 8.872999 # H LIG
287 40 6 0.186000 28.526646 30.762136 4.395998 # H LIG
288 40 6 0.186000 28.502644 28.481136 10.352999 # H LIG
289 40 6 0.186000 27.283646 30.117136 6.560999 # H LIG
290 40 6 0.186000 10.294257 1.020684 8.027998 # H LIG
291 40 6 0.186000 30.207645 37.792137 8.997999 # H LIG
292 40 6 0.186000 31.418644 36.974136 4.260999 # H LIG
293 40 6 0.186000 21.330645 36.814137 5.717999 # H LIG
294 40 6 0.186000 23.294643 35.670135 6.687999 # H LIG
295 40 6 0.186000 42.355259 0.924685 4.965999 # H LIG
296 40 6 0.186000 32.279259 1.079684 3.508999 # H LIG
297 40 6 0.186000 34.241257 2.220684 9.455998 # H LIG
298 40 6 0.186000 39.512260 9.422685 5.823998 # H LIG
299 40 6 0.186000 34.347260 0.765684 7.272999 # H LIG
300 40 6 0.186000 39.533257 7.151685 4.850999 # H LIG
301 40 6 0.186000 41.146259 0.104684 7.146998 # H LIG
302 40 6 0.186000 21.231644 36.869137 8.119999 # H LIG
303 40 6 0.186000 38.197258 7.783685 9.582998 # H LIG
304 40 7 1.560000 26.848644 33.839134 4.568998 # Mg LIG
305 40 7 1.560000 28.407644 34.753136 9.182999 # Mg LIG
306 40 7 1.560000 26.830645 35.645134 6.876999 # Mg LIG
307 40 7 1.560000 37.777260 2.257684 9.265999 # Mg LIG
308 40 7 1.560000 37.791260 4.071684 4.654999 # Mg LIG
309 40 7 1.560000 39.351257 3.152684 6.960999 # Mg LIG
310 40 3 0.456000 27.954643 31.745136 9.496999 # Cc LIG
311 40 2 -0.314000 24.450645 36.125137 3.507999 # Cb LIG
312 40 4 -0.234000 23.334644 36.798134 9.910999 # Cd LIG
313 40 2 -0.314000 22.196644 37.072136 3.749999 # Cb LIG
314 40 4 -0.234000 28.230644 29.331135 9.723999 # Cd LIG
315 40 4 -0.234000 28.253645 30.603136 10.270998 # Cd LIG
316 40 1 0.900000 25.581644 35.871136 9.504999 # Ca LIG
317 40 3 0.456000 29.658646 36.766136 7.190999 # Cc LIG
318 40 2 -0.314000 27.618645 31.534136 8.118999 # Cb LIG
319 40 4 -0.234000 27.584644 30.227135 7.602999 # Cd LIG
320 40 2 -0.314000 27.898643 29.106136 8.369999 # Cb LIG
321 40 4 -0.234000 9.707257 0.340684 7.406999 # Cd LIG
322 40 4 -0.234000 30.485645 37.616135 7.956999 # Cd LIG
323 40 1 0.900000 27.279644 32.638138 7.193998 # Ca LIG
324 40 3 0.456000 24.460644 35.717136 4.881999 # Cc LIG
325 40 2 -0.314000 30.015644 36.569138 5.815999 # Cb LIG
326 40 4 -0.234000 31.165646 37.192135 5.298999 # Cd LIG
327 40 2 -0.314000 10.080257 0.144684 6.058999 # Cb LIG
328 40 4 -0.234000 22.213644 36.650135 5.096999 # Cd LIG
329 40 4 -0.234000 23.307644 36.001137 5.647999 # Cd LIG
330 40 1 0.900000 29.230644 35.722137 4.891999 # Ca LIG
331 40 3 0.456000 35.407257 2.183684 4.340999 # Cc LIG
332 40 2 -0.314000 40.957260 1.329684 10.327999 # Cb LIG
333 40 4 -0.234000 42.102257 0.707685 3.926999 # Cd LIG
334 40 2 -0.314000 21.019646 37.746136 10.086998 # Cb LIG
335 40 4 -0.234000 33.163258 1.245685 4.127998 # Cd LIG
336 40 4 -0.234000 34.254257 1.896685 3.576999 # Cd LIG
337 40 1 0.900000 40.174259 2.187684 4.331999 # Ca LIG
338 40 3 0.456000 38.907257 6.160685 6.651999 # Cc LIG
339 40 2 -0.314000 35.399258 1.775684 5.714999 # Cb LIG
340 40 4 -0.234000 34.284256 1.094685 6.234999 # Cd LIG
341 40 2 -0.314000 33.147259 0.824684 5.474998 # Cb LIG
342 40 4 -0.234000 39.212257 8.573684 6.441998 # Cd LIG
343 40 4 -0.234000 39.235260 7.303683 5.889998 # Cd LIG
344 40 1 0.900000 36.528259 2.028685 6.637999 # Ca LIG
345 40 3 0.456000 40.601257 1.134685 8.953999 # Cc LIG
346 40 2 -0.314000 38.554260 6.369684 8.025999 # Cb LIG
347 40 4 -0.234000 38.515259 7.676684 8.544998 # Cd LIG
348 40 2 -0.314000 38.847260 8.797685 7.786999 # Cb LIG
349 40 4 -0.234000 20.646645 37.551136 8.739999 # Cd LIG
350 40 4 -0.234000 41.425259 0.279684 8.187999 # Cd LIG
351 40 1 0.900000 38.213257 5.264685 8.948998 # Ca LIG
352 40 10 -0.903000 39.532257 1.707685 8.370998 # Oc LIG
353 40 8 -0.899000 38.337257 4.048684 8.520998 # Oa LIG
354 40 9 -0.752000 40.567257 2.402684 5.522999 # Ob LIG
355 40 10 -0.903000 38.951260 4.949684 6.067999 # Oc LIG
356 40 8 -0.899000 37.520260 2.743684 6.211999 # Oa LIG
357 40 9 -0.752000 37.829258 5.495685 10.139998 # Ob LIG
358 40 10 -0.903000 36.435257 2.825685 3.758999 # Oc LIG
359 40 8 -0.899000 39.060257 2.691684 3.904999 # Oa LIG
360 40 9 -0.752000 36.519257 1.578684 7.828999 # Ob LIG
361 40 10 -0.903000 25.490644 35.078136 5.464999 # Oc LIG
362 40 8 -0.899000 28.114643 35.222137 5.316998 # Oa LIG
363 40 9 -0.752000 25.570644 36.320137 8.313999 # Ob LIG
364 40 10 -0.903000 28.005646 32.958138 10.074999 # Oc LIG
365 40 8 -0.899000 26.576645 35.161137 9.930999 # Oa LIG
366 40 9 -0.752000 26.900644 32.406136 6.001999 # Ob LIG
367 40 10 -0.903000 28.586643 36.199135 7.771998 # Oc LIG
368 40 8 -0.899000 27.397644 33.854137 7.621999 # Oa LIG
369 40 9 -0.752000 29.623646 35.506134 3.699999 # Ob LIG
370 40 6 0.186000 23.396852 37.129227 15.792995 # H LIG
371 40 6 0.186000 28.527853 30.764229 11.315995 # H LIG
372 40 6 0.186000 28.503853 28.483229 17.272995 # H LIG
373 40 6 0.186000 27.284853 30.119228 13.480995 # H LIG
374 40 6 0.186000 10.295465 1.022777 14.947995 # H LIG
375 40 6 0.186000 30.208853 37.794228 15.917995 # H LIG
376 40 6 0.186000 31.419853 36.976227 11.180995 # H LIG
377 40 6 0.186000 21.331852 36.816227 12.637995 # H LIG
378 40 6 0.186000 23.295853 35.672230 13.607995 # H LIG
379 40 6 0.186000 42.356468 0.926777 11.885996 # H LIG
380 40 6 0.186000 32.280464 1.081777 10.428995 # H LIG
381 40 6 0.186000 34.242466 2.222776 16.375996 # H LIG
382 40 6 0.186000 39.513466 9.424777 12.743996 # H LIG
383 40 6 0.186000 34.348465 0.767776 14.192995 # H LIG
384 40 6 0.186000 39.534466 7.153777 11.770995 # H LIG
385 40 6 0.186000 41.147469 0.106776 14.066996 # H LIG
386 40 6 0.186000 21.232853 36.871227 15.039995 # H LIG
387 40 6 0.186000 38.198467 7.785777 16.502995 # H LIG
388 40 7 1.560000 26.849854 33.841228 11.488996 # Mg LIG
389 40 7 1.560000 28.408852 34.755226 16.102995 # Mg LIG
390 40 7 1.560000 26.831852 35.647228 13.796995 # Mg LIG
391 40 7 1.560000 37.778465 2.259776 16.185995 # Mg LIG
392 40 7 1.560000 37.792465 4.073776 11.574995 # Mg LIG
393 40 7 1.560000 39.352467 3.154777 13.880995 # Mg LIG
394 40 3 0.456000 27.955853 31.747229 16.416996 # Cc LIG
395 40 2 -0.314000 24.451853 36.127228 10.427996 # Cb LIG
396 40 4 -0.234000 23.335854 36.800228 16.830996 # Cd LIG
397 40 2 -0.314000 22.197853 37.074226 10.669995 # Cb LIG
398 40 4 -0.234000 28.231853 29.333229 16.643995 # Cd LIG
399 40 4 -0.234000 28.254852 30.605228 17.190994 # Cd LIG
400 40 1 0.900000 25.582851 35.873230 16.424995 # Ca LIG
401 40 3 0.456000 29.659853 36.768227 14.110995 # Cc LIG
402 40 2 -0.314000 27.619854 31.536228 15.038996 # Cb LIG
403 40 4 -0.234000 27.585854 30.229229 14.522995 # Cd LIG
404 40 2 -0.314000 27.899853 29.108229 15.289995 # Cb LIG
405 40 4 -0.234000 9.708466 0.342776 14.326996 # Cd LIG
406 40 4 -0.234000 30.486853 37.618229 14.876995 # Cd LIG
407 40 1 0.900000 27.280853 32.640228 14.113996 # Ca LIG
408 40 3 0.456000 24.461853 35.719227 11.801995 # Cc LIG
409 40 2 -0.314000 30.016853 36.571228 12.735995 # Cb LIG
410 40 4 -0.234000 31.166853 37.194229 12.218995 # Cd LIG
411 40 2 -0.314000 10.081466 0.146776 12.978995 # Cb LIG
412 40 4 -0.234000 22.214853 36.652229 12.016995 # Cd LIG
413 40 4 -0.234000 23.308853 36.003227 12.567995 # Cd LIG
414 40 1 0.900000 29.231853 35.724228 11.811996 # Ca LIG
415 40 3 0.456000 35.408466 2.185777 11.260995 # Cc LIG
416 40 2 -0.314000 40.958466 1.331777 17.247995 # Cb LIG
417 40 4 -0.234000 42.103466 0.709777 10.846995 # Cd LIG
418 40 2 -0.314000 21.020853 37.748230 17.006996 # Cb LIG
419 40 4 -0.234000 33.164467 1.247777 11.047996 # Cd LIG
420 40 4 -0.234000 34.255466 1.898777 10.496995 # Cd LIG
421 40 1 0.900000 40.175468 2.189776 11.251995 # Ca LIG
422 40 3 0.456000 38.908466 6.162777 13.571995 # Cc LIG
423 40 2 -0.314000 35.400467 1.777777 12.634995 # Cb LIG
424 40 4 -0.234000 34.285469 1.096777 13.154995 # Cd LIG
425 40 2 -0.314000 33.148468 0.826777 12.394996 # Cb LIG
426 40 4 -0.234000 39.213467 8.575776 13.361996 # Cd LIG
427 40 4 -0.234000 39.236465 7.305776 12.809996 # Cd LIG
428 40 1 0.900000 36.529465 2.030777 13.557995 # Ca LIG
429 40 3 0.456000 40.602467 1.136777 15.873995 # Cc LIG
430 40 2 -0.314000 38.555466 6.371777 14.945995 # Cb LIG
431 40 4 -0.234000 38.516468 7.678777 15.464995 # Cd LIG
432 40 2 -0.314000 38.848465 8.799777 14.706995 # Cb LIG
433 40 4 -0.234000 20.647854 37.553230 15.659996 # Cd LIG
434 40 4 -0.234000 41.426468 0.281776 15.107996 # Cd LIG
435 40 1 0.900000 38.214466 5.266777 15.868996 # Ca LIG
436 40 10 -0.903000 39.533466 1.709777 15.290995 # Oc LIG
437 40 8 -0.899000 38.338467 4.050776 15.440995 # Oa LIG
438 40 9 -0.752000 40.568466 2.404777 12.442995 # Ob LIG
439 40 10 -0.903000 38.952465 4.951777 12.987995 # Oc LIG
440 40 8 -0.899000 37.521465 2.745776 13.131995 # Oa LIG
441 40 9 -0.752000 37.830467 5.497777 17.059996 # Ob LIG
442 40 10 -0.903000 36.436466 2.827777 10.678995 # Oc LIG
443 40 8 -0.899000 39.061466 2.693776 10.824995 # Oa LIG
444 40 9 -0.752000 36.520466 1.580776 14.748995 # Ob LIG
445 40 10 -0.903000 25.491852 35.080227 12.384995 # Oc LIG
446 40 8 -0.899000 28.115852 35.224228 12.236996 # Oa LIG
447 40 9 -0.752000 25.571854 36.322227 15.233995 # Ob LIG
448 40 10 -0.903000 28.006853 32.960228 16.994995 # Oc LIG
449 40 8 -0.899000 26.577854 35.163227 16.850996 # Oa LIG
450 40 9 -0.752000 26.901852 32.408226 12.921995 # Ob LIG
451 40 10 -0.903000 28.587852 36.201229 14.691996 # Oc LIG
452 40 8 -0.899000 27.398853 33.856228 14.541996 # Oa LIG
453 40 9 -0.752000 29.624853 35.508228 10.619995 # Ob LIG
454 40 6 0.186000 34.341370 18.151117 22.712994 # H LIG
455 40 6 0.186000 39.472366 11.786119 18.235992 # H LIG
456 40 6 0.186000 39.448368 9.505118 24.192993 # H LIG
457 40 6 0.186000 38.229370 11.141118 20.400993 # H LIG
458 40 6 0.186000 43.129368 19.938116 21.867992 # H LIG
459 40 6 0.186000 41.153366 18.816118 22.837994 # H LIG
460 40 6 0.186000 42.364368 17.998117 18.100994 # H LIG
461 40 6 0.186000 32.276367 17.838118 19.557993 # H LIG
462 40 6 0.186000 34.240368 16.694117 20.527992 # H LIG
463 40 6 0.186000 31.414368 19.842117 18.805994 # H LIG
464 40 6 0.186000 21.338367 19.997118 17.348993 # H LIG
465 40 6 0.186000 23.300367 21.138117 23.295994 # H LIG
466 40 6 0.186000 28.571369 28.340117 19.663994 # H LIG
467 40 6 0.186000 23.406366 19.683117 21.112993 # H LIG
468 40 6 0.186000 28.592369 26.069117 18.690994 # H LIG
469 40 6 0.186000 30.205368 19.022116 20.986994 # H LIG
470 40 6 0.186000 32.177368 17.893118 21.959993 # H LIG
471 40 6 0.186000 27.256367 26.701117 23.422993 # H LIG
472 40 7 1.560000 37.794369 14.863118 18.408993 # Mg LIG
473 40 7 1.560000 39.353367 15.777118 23.022993 # Mg LIG
474 40 7 1.560000 37.776367 16.669117 20.716993 # Mg LIG
475 40 7 1.560000 26.836367 21.175116 23.105993 # Mg LIG
476 40 7 1.560000 26.850367 22.989117 18.494993 # Mg LIG
477 40 7 1.560000 28.410368 22.070116 20.800993 # Mg LIG
478 40 3 0.456000 38.900368 12.769118 23.336994 # Cc LIG
479 40 2 -0.314000 35.396370 17.149117 17.347994 # Cb LIG
480 40 4 -0.234000 34.280369 17.822117 23.750994 # Cd LIG
481 40 2 -0.314000 33.142368 18.096117 17.589993 # Cb LIG
482 40 4 -0.234000 39.176369 10.355118 23.563993 # Cd LIG
483 40 4 -0.234000 39.199368 11.627118 24.110992 # Cd LIG
484 40 1 0.900000 36.527367 16.895117 23.344994 # Ca LIG
485 40 3 0.456000 40.604366 17.790117 21.030994 # Cc LIG
486 40 2 -0.314000 38.564369 12.558118 21.958994 # Cb LIG
487 40 4 -0.234000 38.530369 11.251118 21.442993 # Cd LIG
488 40 2 -0.314000 38.844368 10.130118 22.209993 # Cb LIG
489 40 4 -0.234000 42.542366 19.258116 21.246994 # Cd LIG
490 40 4 -0.234000 41.431366 18.640116 21.796993 # Cd LIG
491 40 1 0.900000 38.225368 13.662118 21.033993 # Ca LIG
492 40 3 0.456000 35.406368 16.741117 18.721992 # Cc LIG
493 40 2 -0.314000 40.961369 17.593117 19.655994 # Cb LIG
494 40 4 -0.234000 42.111366 18.216116 19.138992 # Cd LIG
495 40 2 -0.314000 42.915367 19.062117 19.898994 # Cb LIG
496 40 4 -0.234000 33.159367 17.674116 18.936993 # Cd LIG
497 40 4 -0.234000 34.253368 17.025118 19.487993 # Cd LIG
498 40 1 0.900000 40.176369 16.746117 18.731995 # Ca LIG
499 40 3 0.456000 24.466368 21.101118 18.180992 # Cc LIG
500 40 2 -0.314000 30.016369 20.247118 24.167994 # Cb LIG
501 40 4 -0.234000 31.161369 19.625116 17.766994 # Cd LIG
502 40 2 -0.314000 31.965368 18.770117 23.926994 # Cb LIG
503 40 4 -0.234000 22.222368 20.163118 17.967995 # Cd LIG
504 40 4 -0.234000 23.313368 20.814117 17.416992 # Cd LIG
505 40 1 0.900000 29.233368 21.105116 18.171993 # Ca LIG
506 40 3 0.456000 27.966368 25.078117 20.491993 # Cc LIG
507 40 2 -0.314000 24.458366 20.693117 19.554993 # Cb LIG
508 40 4 -0.234000 23.343367 20.012117 20.074993 # Cd LIG
509 40 2 -0.314000 22.206367 19.742117 19.314995 # Cb LIG
510 40 4 -0.234000 28.271368 27.491117 20.281994 # Cd LIG
511 40 4 -0.234000 28.294369 26.221117 19.729994 # Cd LIG
512 40 1 0.900000 25.587366 20.946117 20.477993 # Ca LIG
513 40 3 0.456000 29.660368 20.052118 22.793993 # Cc LIG
514 40 2 -0.314000 27.613367 25.287117 21.865993 # Cb LIG
515 40 4 -0.234000 27.574368 26.594118 22.384995 # Cd LIG
516 40 2 -0.314000 27.906368 27.715117 21.626993 # Cb LIG
517 40 4 -0.234000 31.592369 18.575117 22.579994 # Cd LIG
518 40 4 -0.234000 30.484367 19.197117 22.027994 # Cd LIG
519 40 1 0.900000 27.272367 24.182117 22.788994 # Ca LIG
520 40 10 -0.903000 28.591368 20.625116 22.210993 # Oc LIG
521 40 8 -0.899000 27.396368 22.966116 22.360992 # Oa LIG
522 40 9 -0.752000 29.626369 21.320116 19.362993 # Ob LIG
523 40 10 -0.903000 28.010368 23.867117 19.907993 # Oc LIG
524 40 8 -0.899000 26.579367 21.661116 20.051994 # Oa LIG