LAMMPS data file. CGCMM style. atom_style full generated by VMD/TopoTools v1.5 on Tue Jun 13 18:11:39 PDT 2017
 2253 atoms
 606 bonds
 0 angles
 0 dihedrals
 0 impropers
 11 atom types
 1 bond types
 0 angle types
 0 dihedral types
 0 improper types
 1.894289 45.772287  xlo xhi
 -2.148353 41.711648  ylo yhi
 -0.004506 27.667495  zlo zhi

# Pair Coeffs
#
# 1  Ca
# 2  Cb
# 3  Cc
# 4  Cd
# 5  Cg
# 6  H
# 7  Oa
# 8  Ob
# 9  Oc
# 10  Og
# 11  Zn

 Masses

 1 12.011000 # Ca
 2 12.011000 # Cb
 3 12.011000 # Cc
 4 12.011000 # Cd
 5 12.011000 # Cg
 6 1.008000 # H
 7 15.999000 # Oa
 8 15.999000 # Ob
 9 15.999000 # Oc
 10 15.999000 # Og
 11 65.379997 # Zn

 Atoms

1 1 10 -0.325600 19.200947 29.191446 16.883989 # Og 
2 1 5 0.651200 19.200947 29.191446 15.723989 # Cg 
3 1 10 -0.325600 19.200947 29.191446 14.563990 # Og 
4 2 10 -0.325600 19.200947 29.191446 18.340988 # Og 
5 2 5 0.651200 19.200947 29.191446 17.180988 # Cg 
6 2 10 -0.325600 19.200947 29.191446 16.020988 # Og 
7 3 10 -0.325600 19.200947 29.191446 19.796989 # Og 
8 3 5 0.651200 19.200947 29.191446 18.636990 # Cg 
9 3 10 -0.325600 19.200947 29.191446 17.476990 # Og 
10 4 10 -0.325600 19.200947 29.192446 21.252989 # Og 
11 4 5 0.651200 19.200947 29.192446 20.092989 # Cg 
12 4 10 -0.325600 19.200947 29.192446 18.932989 # Og 
13 5 10 -0.325600 19.201946 29.192446 22.709990 # Og 
14 5 5 0.651200 19.201946 29.192446 21.549990 # Cg 
15 5 10 -0.325600 19.201946 29.192446 20.389990 # Og 
16 6 10 -0.325600 19.201946 29.193445 24.165989 # Og 
17 6 5 0.651200 19.201946 29.193445 23.005989 # Cg 
18 6 10 -0.325600 19.201946 29.193445 21.845989 # Og 
19 7 10 -0.325600 19.201946 29.193445 25.622990 # Og 
20 7 5 0.651200 19.201946 29.193445 24.462990 # Cg 
21 7 10 -0.325600 19.201946 29.193445 23.302990 # Og 
22 8 10 -0.325600 19.201946 29.194447 27.078989 # Og 
23 8 5 0.651200 19.201946 29.194447 25.918989 # Cg 
24 8 10 -0.325600 19.201946 29.194447 24.758989 # Og 
25 9 10 -0.325600 19.198116 29.219545 0.864000 # Og 
26 9 5 0.651200 19.202950 29.194447 27.375990 # Cg 
27 9 10 -0.325600 19.202950 29.194447 26.215990 # Og 
28 10 10 -0.325600 19.198116 29.219545 2.320000 # Og 
29 10 5 0.651200 19.198116 29.219545 1.160000 # Cg 
30 10 10 -0.325600 19.198116 29.219545 0.000000 # Og 
31 11 10 -0.325600 19.198116 29.220545 3.776000 # Og 
32 11 5 0.651200 19.198116 29.220545 2.616000 # Cg 
33 11 10 -0.325600 19.198116 29.220545 1.456000 # Og 
34 12 10 -0.325600 19.198116 29.220545 5.233000 # Og 
35 12 5 0.651200 19.198116 29.220545 4.073000 # Cg 
36 12 10 -0.325600 19.198116 29.220545 2.913000 # Og 
37 13 10 -0.325600 19.199116 29.221544 6.689000 # Og 
38 13 5 0.651200 19.199116 29.221544 5.529000 # Cg 
39 13 10 -0.325600 19.199116 29.221544 4.369000 # Og 
40 14 10 -0.325600 19.199116 29.221544 8.146000 # Og 
41 14 5 0.651200 19.199116 29.221544 6.986000 # Cg 
42 14 10 -0.325600 19.199116 29.221544 5.826000 # Og 
43 15 10 -0.325600 19.199116 29.222546 9.602000 # Og 
44 15 5 0.651200 19.199116 29.222546 8.442000 # Cg 
45 15 10 -0.325600 19.199116 29.222546 7.282000 # Og 
46 16 10 -0.325600 19.200119 29.222546 11.059000 # Og 
47 16 5 0.651200 19.200119 29.222546 9.899000 # Cg 
48 16 10 -0.325600 19.200119 29.222546 8.739000 # Og 
49 17 10 -0.325600 19.200119 29.223545 12.515000 # Og 
50 17 5 0.651200 19.200119 29.223545 11.355000 # Cg 
51 17 10 -0.325600 19.200119 29.223545 10.195000 # Og 
52 18 10 -0.325600 19.200119 29.223545 13.971000 # Og 
53 18 5 0.651200 19.200119 29.223545 12.811000 # Cg 
54 18 10 -0.325600 19.200119 29.223545 11.651000 # Og 
55 19 10 -0.325600 19.200119 29.223545 15.428000 # Og 
56 19 5 0.651200 19.200119 29.223545 14.268000 # Cg 
57 19 10 -0.325600 19.200119 29.223545 13.108000 # Og 
58 20 10 -0.325600 13.716950 38.686447 16.883989 # Og 
59 20 5 0.651200 13.716950 38.686447 15.723989 # Cg 
60 20 10 -0.325600 13.716950 38.686447 14.563990 # Og 
61 21 10 -0.325600 13.716950 38.686447 18.340988 # Og 
62 21 5 0.651200 13.716950 38.686447 17.180988 # Cg 
63 21 10 -0.325600 13.716950 38.686447 16.020988 # Og 
64 22 10 -0.325600 13.716950 38.686447 19.796989 # Og 
65 22 5 0.651200 13.716950 38.686447 18.636990 # Cg 
66 22 10 -0.325600 13.716950 38.686447 17.476990 # Og 
67 23 10 -0.325600 13.716950 38.687447 21.252989 # Og 
68 23 5 0.651200 13.716950 38.687447 20.092989 # Cg 
69 23 10 -0.325600 13.716950 38.687447 18.932989 # Og 
70 24 10 -0.325600 13.717950 38.687447 22.709990 # Og 
71 24 5 0.651200 13.717950 38.687447 21.549990 # Cg 
72 24 10 -0.325600 13.717950 38.687447 20.389990 # Og 
73 25 10 -0.325600 13.717950 38.688446 24.165989 # Og 
74 25 5 0.651200 13.717950 38.688446 23.005989 # Cg 
75 25 10 -0.325600 13.717950 38.688446 21.845989 # Og 
76 26 10 -0.325600 13.717950 38.688446 25.622990 # Og 
77 26 5 0.651200 13.717950 38.688446 24.462990 # Cg 
78 26 10 -0.325600 13.717950 38.688446 23.302990 # Og 
79 27 10 -0.325600 13.717950 38.689445 27.078989 # Og 
80 27 5 0.651200 13.717950 38.689445 25.918989 # Cg 
81 27 10 -0.325600 13.717950 38.689445 24.758989 # Og 
82 28 10 -0.325600 13.714120 38.714546 0.864000 # Og 
83 28 5 0.651200 13.718949 38.689445 27.375990 # Cg 
84 28 10 -0.325600 13.718949 38.689445 26.215990 # Og 
85 29 10 -0.325600 13.714120 38.714546 2.320000 # Og 
86 29 5 0.651200 13.714120 38.714546 1.160000 # Cg 
87 29 10 -0.325600 13.714120 38.714546 0.000000 # Og 
88 30 10 -0.325600 13.714120 38.715546 3.776000 # Og 
89 30 5 0.651200 13.714120 38.715546 2.616000 # Cg 
90 30 10 -0.325600 13.714120 38.715546 1.456000 # Og 
91 31 10 -0.325600 13.714120 38.715546 5.233000 # Og 
92 31 5 0.651200 13.714120 38.715546 4.073000 # Cg 
93 31 10 -0.325600 13.714120 38.715546 2.913000 # Og 
94 32 10 -0.325600 13.715119 38.716545 6.689000 # Og 
95 32 5 0.651200 13.715119 38.716545 5.529000 # Cg 
96 32 10 -0.325600 13.715119 38.716545 4.369000 # Og 
97 33 10 -0.325600 13.715119 38.716545 8.146000 # Og 
98 33 5 0.651200 13.715119 38.716545 6.986000 # Cg 
99 33 10 -0.325600 13.715119 38.716545 5.826000 # Og 
100 34 10 -0.325600 13.715119 38.717545 9.602000 # Og 
101 34 5 0.651200 13.715119 38.717545 8.442000 # Cg 
102 34 10 -0.325600 13.715119 38.717545 7.282000 # Og 
103 35 10 -0.325600 13.715119 38.717545 11.059000 # Og 
104 35 5 0.651200 13.715119 38.717545 9.899000 # Cg 
105 35 10 -0.325600 13.715119 38.717545 8.739000 # Og 
106 36 10 -0.325600 13.716119 38.718544 12.515000 # Og 
107 36 5 0.651200 13.716119 38.718544 11.355000 # Cg 
108 36 10 -0.325600 13.716119 38.718544 10.195000 # Og 
109 37 10 -0.325600 13.716119 38.718544 13.971000 # Og 
110 37 5 0.651200 13.716119 38.718544 12.811000 # Cg 
111 37 10 -0.325600 13.716119 38.718544 11.651000 # Og 
112 38 10 -0.325600 13.716119 38.718544 15.428000 # Og 
113 38 5 0.651200 13.716119 38.718544 14.268000 # Cg 
114 38 10 -0.325600 13.716119 38.718544 13.108000 # Og 
115 39 10 -0.325600 30.168579 10.201402 16.883989 # Og 
116 39 5 0.651200 30.168579 10.201402 15.723989 # Cg 
117 39 10 -0.325600 30.168579 10.201402 14.563990 # Og 
118 40 10 -0.325600 30.169579 10.201402 18.340988 # Og 
119 40 5 0.651200 30.169579 10.201402 17.180988 # Cg 
120 40 10 -0.325600 30.169579 10.201402 16.020988 # Og 
121 41 10 -0.325600 30.169579 10.201402 19.796989 # Og 
122 41 5 0.651200 30.169579 10.201402 18.636990 # Cg 
123 41 10 -0.325600 30.169579 10.201402 17.476990 # Og 
124 42 10 -0.325600 30.169579 10.202402 21.252989 # Og 
125 42 5 0.651200 30.169579 10.202402 20.092989 # Cg 
126 42 10 -0.325600 30.169579 10.202402 18.932989 # Og 
127 43 10 -0.325600 30.169579 10.202402 22.709990 # Og 
128 43 5 0.651200 30.169579 10.202402 21.549990 # Cg 
129 43 10 -0.325600 30.169579 10.202402 20.389990 # Og 
130 44 10 -0.325600 30.170578 10.203402 24.165989 # Og 
131 44 5 0.651200 30.170578 10.203402 23.005989 # Cg 
132 44 10 -0.325600 30.170578 10.203402 21.845989 # Og 
133 45 10 -0.325600 30.170578 10.203402 25.622990 # Og 
134 45 5 0.651200 30.170578 10.203402 24.462990 # Cg 
135 45 10 -0.325600 30.170578 10.203402 23.302990 # Og 
136 46 10 -0.325600 30.170578 10.204402 27.078989 # Og 
137 46 5 0.651200 30.170578 10.204402 25.918989 # Cg 
138 46 10 -0.325600 30.170578 10.204402 24.758989 # Og 
139 47 10 -0.325600 30.165749 10.229500 0.864000 # Og 
140 47 5 0.651200 30.170578 10.204402 27.375990 # Cg 
141 47 10 -0.325600 30.170578 10.204402 26.215990 # Og 
142 48 10 -0.325600 30.166748 10.230500 2.320000 # Og 
143 48 5 0.651200 30.166748 10.230500 1.160000 # Cg 
144 48 10 -0.325600 30.166748 10.230500 0.000000 # Og 
145 49 10 -0.325600 30.166748 10.230500 3.776000 # Og 
146 49 5 0.651200 30.166748 10.230500 2.616000 # Cg 
147 49 10 -0.325600 30.166748 10.230500 1.456000 # Og 
148 50 10 -0.325600 30.166748 10.230500 5.233000 # Og 
149 50 5 0.651200 30.166748 10.230500 4.073000 # Cg 
150 50 10 -0.325600 30.166748 10.230500 2.913000 # Og 
151 51 10 -0.325600 30.166748 10.231501 6.689000 # Og 
152 51 5 0.651200 30.166748 10.231501 5.529000 # Cg 
153 51 10 -0.325600 30.166748 10.231501 4.369000 # Og 
154 52 10 -0.325600 30.167747 10.231501 8.146000 # Og 
155 52 5 0.651200 30.167747 10.231501 6.986000 # Cg 
156 52 10 -0.325600 30.167747 10.231501 5.826000 # Og 
157 53 10 -0.325600 30.167747 10.232500 9.602000 # Og 
158 53 5 0.651200 30.167747 10.232500 8.442000 # Cg 
159 53 10 -0.325600 30.167747 10.232500 7.282000 # Og 
160 54 10 -0.325600 30.167747 10.232500 11.059000 # Og 
161 54 5 0.651200 30.167747 10.232500 9.899000 # Cg 
162 54 10 -0.325600 30.167747 10.232500 8.739000 # Og 
163 55 10 -0.325600 30.167747 10.233500 12.515000 # Og 
164 55 5 0.651200 30.167747 10.233500 11.355000 # Cg 
165 55 10 -0.325600 30.167747 10.233500 10.195000 # Og 
166 56 10 -0.325600 30.168747 10.233500 13.971000 # Og 
167 56 5 0.651200 30.168747 10.233500 12.811000 # Cg 
168 56 10 -0.325600 30.168747 10.233500 11.651000 # Og 
169 57 10 -0.325600 30.168747 10.233500 15.428000 # Og 
170 57 5 0.651200 30.168747 10.233500 14.268000 # Cg 
171 57 10 -0.325600 30.168747 10.233500 13.108000 # Og 
172 58 10 -0.325600 24.684578 19.696402 16.883989 # Og 
173 58 5 0.651200 24.684578 19.696402 15.723989 # Cg 
174 58 10 -0.325600 24.684578 19.696402 14.563990 # Og 
175 59 10 -0.325600 24.684578 19.696402 18.340988 # Og 
176 59 5 0.651200 24.684578 19.696402 17.180988 # Cg 
177 59 10 -0.325600 24.684578 19.696402 16.020988 # Og 
178 60 10 -0.325600 24.685581 19.696402 19.796989 # Og 
179 60 5 0.651200 24.685581 19.696402 18.636990 # Cg 
180 60 10 -0.325600 24.685581 19.696402 17.476990 # Og 
181 61 10 -0.325600 24.685581 19.697401 21.252989 # Og 
182 61 5 0.651200 24.685581 19.697401 20.092989 # Cg 
183 61 10 -0.325600 24.685581 19.697401 18.932989 # Og 
184 62 10 -0.325600 24.685581 19.697401 22.709990 # Og 
185 62 5 0.651200 24.685581 19.697401 21.549990 # Cg 
186 62 10 -0.325600 24.685581 19.697401 20.389990 # Og 
187 63 10 -0.325600 24.685581 19.698402 24.165989 # Og 
188 63 5 0.651200 24.685581 19.698402 23.005989 # Cg 
189 63 10 -0.325600 24.685581 19.698402 21.845989 # Og 
190 64 10 -0.325600 24.686581 19.698402 25.622990 # Og 
191 64 5 0.651200 24.686581 19.698402 24.462990 # Cg 
192 64 10 -0.325600 24.686581 19.698402 23.302990 # Og 
193 65 10 -0.325600 24.686581 19.699402 27.078989 # Og 
194 65 5 0.651200 24.686581 19.699402 25.918989 # Cg 
195 65 10 -0.325600 24.686581 19.699402 24.758989 # Og 
196 66 10 -0.325600 24.681747 19.724499 0.864000 # Og 
197 66 5 0.651200 24.686581 19.699402 27.375990 # Cg 
198 66 10 -0.325600 24.686581 19.699402 26.215990 # Og 
199 67 10 -0.325600 24.682747 19.725500 2.320000 # Og 
200 67 5 0.651200 24.682747 19.725500 1.160000 # Cg 
201 67 10 -0.325600 24.682747 19.725500 0.000000 # Og 
202 68 10 -0.325600 24.682747 19.725500 3.776000 # Og 
203 68 5 0.651200 24.682747 19.725500 2.616000 # Cg 
204 68 10 -0.325600 24.682747 19.725500 1.456000 # Og 
205 69 10 -0.325600 24.682747 19.725500 5.233000 # Og 
206 69 5 0.651200 24.682747 19.725500 4.073000 # Cg 
207 69 10 -0.325600 24.682747 19.725500 2.913000 # Og 
208 70 10 -0.325600 24.682747 19.726501 6.689000 # Og 
209 70 5 0.651200 24.682747 19.726501 5.529000 # Cg 
210 70 10 -0.325600 24.682747 19.726501 4.369000 # Og 
211 71 10 -0.325600 24.683746 19.726501 8.146000 # Og 
212 71 5 0.651200 24.683746 19.726501 6.986000 # Cg 
213 71 10 -0.325600 24.683746 19.726501 5.826000 # Og 
214 72 10 -0.325600 24.683746 19.727501 9.602000 # Og 
215 72 5 0.651200 24.683746 19.727501 8.442000 # Cg 
216 72 10 -0.325600 24.683746 19.727501 7.282000 # Og 
217 73 10 -0.325600 24.683746 19.727501 11.059000 # Og 
218 73 5 0.651200 24.683746 19.727501 9.899000 # Cg 
219 73 10 -0.325600 24.683746 19.727501 8.739000 # Og 
220 74 10 -0.325600 24.683746 19.728500 12.515000 # Og 
221 74 5 0.651200 24.683746 19.728500 11.355000 # Cg 
222 74 10 -0.325600 24.683746 19.728500 10.195000 # Og 
223 75 10 -0.325600 24.684750 19.728500 13.971000 # Og 
224 75 5 0.651200 24.684750 19.728500 12.811000 # Cg 
225 75 10 -0.325600 24.684750 19.728500 11.651000 # Og 
226 76 10 -0.325600 24.684750 19.728500 15.428000 # Og 
227 76 5 0.651200 24.684750 19.728500 14.268000 # Cg 
228 76 10 -0.325600 24.684750 19.728500 13.108000 # Og 
229 77 10 -0.325600 30.169949 29.191446 16.883989 # Og 
230 77 5 0.651200 30.169949 29.191446 15.723989 # Cg 
231 77 10 -0.325600 30.169949 29.191446 14.563990 # Og 
232 78 10 -0.325600 30.169949 29.191446 18.340988 # Og 
233 78 5 0.651200 30.169949 29.191446 17.180988 # Cg 
234 78 10 -0.325600 30.169949 29.191446 16.020988 # Og 
235 79 10 -0.325600 30.170948 29.191446 19.796989 # Og 
236 79 5 0.651200 30.170948 29.191446 18.636990 # Cg 
237 79 10 -0.325600 30.170948 29.191446 17.476990 # Og 
238 80 10 -0.325600 30.170948 29.192446 21.252989 # Og 
239 80 5 0.651200 30.170948 29.192446 20.092989 # Cg 
240 80 10 -0.325600 30.170948 29.192446 18.932989 # Og 
241 81 10 -0.325600 30.170948 29.192446 22.709990 # Og 
242 81 5 0.651200 30.170948 29.192446 21.549990 # Cg 
243 81 10 -0.325600 30.170948 29.192446 20.389990 # Og 
244 82 10 -0.325600 30.170948 29.193445 24.165989 # Og 
245 82 5 0.651200 30.170948 29.193445 23.005989 # Cg 
246 82 10 -0.325600 30.170948 29.193445 21.845989 # Og 
247 83 10 -0.325600 30.171947 29.193445 25.622990 # Og 
248 83 5 0.651200 30.171947 29.193445 24.462990 # Cg 
249 83 10 -0.325600 30.171947 29.193445 23.302990 # Og 
250 84 10 -0.325600 30.171947 29.194447 27.078989 # Og 
251 84 5 0.651200 30.171947 29.194447 25.918989 # Cg 
252 84 10 -0.325600 30.171947 29.194447 24.758989 # Og 
253 85 10 -0.325600 30.167118 29.219545 0.864000 # Og 
254 85 5 0.651200 30.171947 29.194447 27.375990 # Cg 
255 85 10 -0.325600 30.171947 29.194447 26.215990 # Og 
256 86 10 -0.325600 30.167118 29.219545 2.320000 # Og 
257 86 5 0.651200 30.167118 29.219545 1.160000 # Cg 
258 86 10 -0.325600 30.167118 29.219545 0.000000 # Og 
259 87 10 -0.325600 30.168118 29.220545 3.776000 # Og 
260 87 5 0.651200 30.168118 29.220545 2.616000 # Cg 
261 87 10 -0.325600 30.168118 29.220545 1.456000 # Og 
262 88 10 -0.325600 30.168118 29.220545 5.233000 # Og 
263 88 5 0.651200 30.168118 29.220545 4.073000 # Cg 
264 88 10 -0.325600 30.168118 29.220545 2.913000 # Og 
265 89 10 -0.325600 30.168118 29.221544 6.689000 # Og 
266 89 5 0.651200 30.168118 29.221544 5.529000 # Cg 
267 89 10 -0.325600 30.168118 29.221544 4.369000 # Og 
268 90 10 -0.325600 30.169117 29.221544 8.146000 # Og 
269 90 5 0.651200 30.169117 29.221544 6.986000 # Cg 
270 90 10 -0.325600 30.169117 29.221544 5.826000 # Og 
271 91 10 -0.325600 30.169117 29.222546 9.602000 # Og 
272 91 5 0.651200 30.169117 29.222546 8.442000 # Cg 
273 91 10 -0.325600 30.169117 29.222546 7.282000 # Og 
274 92 10 -0.325600 30.169117 29.222546 11.059000 # Og 
275 92 5 0.651200 30.169117 29.222546 9.899000 # Cg 
276 92 10 -0.325600 30.169117 29.222546 8.739000 # Og 
277 93 10 -0.325600 30.169117 29.223545 12.515000 # Og 
278 93 5 0.651200 30.169117 29.223545 11.355000 # Cg 
279 93 10 -0.325600 30.169117 29.223545 10.195000 # Og 
280 94 10 -0.325600 30.170116 29.223545 13.971000 # Og 
281 94 5 0.651200 30.170116 29.223545 12.811000 # Cg 
282 94 10 -0.325600 30.170116 29.223545 11.651000 # Og 
283 95 10 -0.325600 30.170116 29.223545 15.428000 # Og 
284 95 5 0.651200 30.170116 29.223545 14.268000 # Cg 
285 95 10 -0.325600 30.170116 29.223545 13.108000 # Og 
286 96 10 -0.325600 24.685947 38.686447 16.883989 # Og 
287 96 5 0.651200 24.685947 38.686447 15.723989 # Cg 
288 96 10 -0.325600 24.685947 38.686447 14.563990 # Og 
289 97 10 -0.325600 24.685947 38.686447 18.340988 # Og 
290 97 5 0.651200 24.685947 38.686447 17.180988 # Cg 
291 97 10 -0.325600 24.685947 38.686447 16.020988 # Og 
292 98 10 -0.325600 24.686947 38.686447 19.796989 # Og 
293 98 5 0.651200 24.686947 38.686447 18.636990 # Cg 
294 98 10 -0.325600 24.686947 38.686447 17.476990 # Og 
295 99 10 -0.325600 24.686947 38.687447 21.252989 # Og 
296 99 5 0.651200 24.686947 38.687447 20.092989 # Cg 
297 99 10 -0.325600 24.686947 38.687447 18.932989 # Og 
298 100 10 -0.325600 24.686947 38.687447 22.709990 # Og 
299 100 5 0.651200 24.686947 38.687447 21.549990 # Cg 
300 100 10 -0.325600 24.686947 38.687447 20.389990 # Og 
301 101 10 -0.325600 24.686947 38.688446 24.165989 # Og 
302 101 5 0.651200 24.686947 38.688446 23.005989 # Cg 
303 101 10 -0.325600 24.686947 38.688446 21.845989 # Og 
304 102 10 -0.325600 24.687950 38.688446 25.622990 # Og 
305 102 5 0.651200 24.687950 38.688446 24.462990 # Cg 
306 102 10 -0.325600 24.687950 38.688446 23.302990 # Og 
307 103 10 -0.325600 24.687950 38.689445 27.078989 # Og 
308 103 5 0.651200 24.687950 38.689445 25.918989 # Cg 
309 103 10 -0.325600 24.687950 38.689445 24.758989 # Og 
310 104 10 -0.325600 24.683117 38.714546 0.864000 # Og 
311 104 5 0.651200 24.687950 38.689445 27.375990 # Cg 
312 104 10 -0.325600 24.687950 38.689445 26.215990 # Og 
313 105 10 -0.325600 24.683117 38.714546 2.320000 # Og 
314 105 5 0.651200 24.683117 38.714546 1.160000 # Cg 
315 105 10 -0.325600 24.683117 38.714546 0.000000 # Og 
316 106 10 -0.325600 24.684116 38.715546 3.776000 # Og 
317 106 5 0.651200 24.684116 38.715546 2.616000 # Cg 
318 106 10 -0.325600 24.684116 38.715546 1.456000 # Og 
319 107 10 -0.325600 24.684116 38.715546 5.233000 # Og 
320 107 5 0.651200 24.684116 38.715546 4.073000 # Cg 
321 107 10 -0.325600 24.684116 38.715546 2.913000 # Og 
322 108 10 -0.325600 24.684116 38.716545 6.689000 # Og 
323 108 5 0.651200 24.684116 38.716545 5.529000 # Cg 
324 108 10 -0.325600 24.684116 38.716545 4.369000 # Og 
325 109 10 -0.325600 24.684116 38.716545 8.146000 # Og 
326 109 5 0.651200 24.684116 38.716545 6.986000 # Cg 
327 109 10 -0.325600 24.684116 38.716545 5.826000 # Og 
328 110 10 -0.325600 24.685120 38.717545 9.602000 # Og 
329 110 5 0.651200 24.685120 38.717545 8.442000 # Cg 
330 110 10 -0.325600 24.685120 38.717545 7.282000 # Og 
331 111 10 -0.325600 24.685120 38.717545 11.059000 # Og 
332 111 5 0.651200 24.685120 38.717545 9.899000 # Cg 
333 111 10 -0.325600 24.685120 38.717545 8.739000 # Og 
334 112 10 -0.325600 24.685120 38.718544 12.515000 # Og 
335 112 5 0.651200 24.685120 38.718544 11.355000 # Cg 
336 112 10 -0.325600 24.685120 38.718544 10.195000 # Og 
337 113 10 -0.325600 24.685120 38.718544 13.971000 # Og 
338 113 5 0.651200 24.685120 38.718544 12.811000 # Cg 
339 113 10 -0.325600 24.685120 38.718544 11.651000 # Og 
340 114 10 -0.325600 24.686119 38.718544 15.428000 # Og 
341 114 5 0.651200 24.686119 38.718544 14.268000 # Cg 
342 114 10 -0.325600 24.686119 38.718544 13.108000 # Og 
343 115 10 -0.325600 41.138577 10.201402 16.883989 # Og 
344 115 5 0.651200 41.138577 10.201402 15.723989 # Cg 
345 115 10 -0.325600 41.138577 10.201402 14.563990 # Og 
346 116 10 -0.325600 41.138577 10.201402 18.340988 # Og 
347 116 5 0.651200 41.138577 10.201402 17.180988 # Cg 
348 116 10 -0.325600 41.138577 10.201402 16.020988 # Og 
349 117 10 -0.325600 41.138577 10.201402 19.796989 # Og 
350 117 5 0.651200 41.138577 10.201402 18.636990 # Cg 
351 117 10 -0.325600 41.138577 10.201402 17.476990 # Og 
352 118 10 -0.325600 41.139580 10.202402 21.252989 # Og 
353 118 5 0.651200 41.139580 10.202402 20.092989 # Cg 
354 118 10 -0.325600 41.139580 10.202402 18.932989 # Og 
355 119 10 -0.325600 41.139580 10.202402 22.709990 # Og 
356 119 5 0.651200 41.139580 10.202402 21.549990 # Cg 
357 119 10 -0.325600 41.139580 10.202402 20.389990 # Og 
358 120 10 -0.325600 41.139580 10.203402 24.165989 # Og 
359 120 5 0.651200 41.139580 10.203402 23.005989 # Cg 
360 120 10 -0.325600 41.139580 10.203402 21.845989 # Og 
361 121 10 -0.325600 41.139580 10.203402 25.622990 # Og 
362 121 5 0.651200 41.139580 10.203402 24.462990 # Cg 
363 121 10 -0.325600 41.139580 10.203402 23.302990 # Og 
364 122 10 -0.325600 41.140579 10.204402 27.078989 # Og 
365 122 5 0.651200 41.140579 10.204402 25.918989 # Cg 
366 122 10 -0.325600 41.140579 10.204402 24.758989 # Og 
367 123 10 -0.325600 41.135746 10.229500 0.864000 # Og 
368 123 5 0.651200 41.140579 10.204402 27.375990 # Cg 
369 123 10 -0.325600 41.140579 10.204402 26.215990 # Og 
370 124 10 -0.325600 41.135746 10.230500 2.320000 # Og 
371 124 5 0.651200 41.135746 10.230500 1.160000 # Cg 
372 124 10 -0.325600 41.135746 10.230500 0.000000 # Og 
373 125 10 -0.325600 41.135746 10.230500 3.776000 # Og 
374 125 5 0.651200 41.135746 10.230500 2.616000 # Cg 
375 125 10 -0.325600 41.135746 10.230500 1.456000 # Og 
376 126 10 -0.325600 41.136749 10.230500 5.233000 # Og 
377 126 5 0.651200 41.136749 10.230500 4.073000 # Cg 
378 126 10 -0.325600 41.136749 10.230500 2.913000 # Og 
379 127 10 -0.325600 41.136749 10.231501 6.689000 # Og 
380 127 5 0.651200 41.136749 10.231501 5.529000 # Cg 
381 127 10 -0.325600 41.136749 10.231501 4.369000 # Og 
382 128 10 -0.325600 41.136749 10.231501 8.146000 # Og 
383 128 5 0.651200 41.136749 10.231501 6.986000 # Cg 
384 128 10 -0.325600 41.136749 10.231501 5.826000 # Og 
385 129 10 -0.325600 41.136749 10.232500 9.602000 # Og 
386 129 5 0.651200 41.136749 10.232500 8.442000 # Cg 
387 129 10 -0.325600 41.136749 10.232500 7.282000 # Og 
388 130 10 -0.325600 41.137749 10.232500 11.059000 # Og 
389 130 5 0.651200 41.137749 10.232500 9.899000 # Cg 
390 130 10 -0.325600 41.137749 10.232500 8.739000 # Og 
391 131 10 -0.325600 41.137749 10.233500 12.515000 # Og 
392 131 5 0.651200 41.137749 10.233500 11.355000 # Cg 
393 131 10 -0.325600 41.137749 10.233500 10.195000 # Og 
394 132 10 -0.325600 41.137749 10.233500 13.971000 # Og 
395 132 5 0.651200 41.137749 10.233500 12.811000 # Cg 
396 132 10 -0.325600 41.137749 10.233500 11.651000 # Og 
397 133 10 -0.325600 41.137749 10.233500 15.428000 # Og 
398 133 5 0.651200 41.137749 10.233500 14.268000 # Cg 
399 133 10 -0.325600 41.137749 10.233500 13.108000 # Og 
400 134 10 -0.325600 35.654579 19.696402 16.883989 # Og 
401 134 5 0.651200 35.654579 19.696402 15.723989 # Cg 
402 134 10 -0.325600 35.654579 19.696402 14.563990 # Og 
403 135 10 -0.325600 35.654579 19.696402 18.340988 # Og 
404 135 5 0.651200 35.654579 19.696402 17.180988 # Cg 
405 135 10 -0.325600 35.654579 19.696402 16.020988 # Og 
406 136 10 -0.325600 35.654579 19.696402 19.796989 # Og 
407 136 5 0.651200 35.654579 19.696402 18.636990 # Cg 
408 136 10 -0.325600 35.654579 19.696402 17.476990 # Og 
409 137 10 -0.325600 35.654579 19.697401 21.252989 # Og 
410 137 5 0.651200 35.654579 19.697401 20.092989 # Cg 
411 137 10 -0.325600 35.654579 19.697401 18.932989 # Og 
412 138 10 -0.325600 35.655579 19.697401 22.709990 # Og 
413 138 5 0.651200 35.655579 19.697401 21.549990 # Cg 
414 138 10 -0.325600 35.655579 19.697401 20.389990 # Og 
415 139 10 -0.325600 35.655579 19.698402 24.165989 # Og 
416 139 5 0.651200 35.655579 19.698402 23.005989 # Cg 
417 139 10 -0.325600 35.655579 19.698402 21.845989 # Og 
418 140 10 -0.325600 35.655579 19.698402 25.622990 # Og 
419 140 5 0.651200 35.655579 19.698402 24.462990 # Cg 
420 140 10 -0.325600 35.655579 19.698402 23.302990 # Og 
421 141 10 -0.325600 35.656578 19.699402 27.078989 # Og 
422 141 5 0.651200 35.656578 19.699402 25.918989 # Cg 
423 141 10 -0.325600 35.656578 19.699402 24.758989 # Og 
424 142 10 -0.325600 35.651749 19.724499 0.864000 # Og 
425 142 5 0.651200 35.656578 19.699402 27.375990 # Cg 
426 142 10 -0.325600 35.656578 19.699402 26.215990 # Og 
427 143 10 -0.325600 35.651749 19.725500 2.320000 # Og 
428 143 5 0.651200 35.651749 19.725500 1.160000 # Cg 
429 143 10 -0.325600 35.651749 19.725500 0.000000 # Og 
430 144 10 -0.325600 35.651749 19.725500 3.776000 # Og 
431 144 5 0.651200 35.651749 19.725500 2.616000 # Cg 
432 144 10 -0.325600 35.651749 19.725500 1.456000 # Og 
433 145 10 -0.325600 35.652748 19.725500 5.233000 # Og 
434 145 5 0.651200 35.652748 19.725500 4.073000 # Cg 
435 145 10 -0.325600 35.652748 19.725500 2.913000 # Og 
436 146 10 -0.325600 35.652748 19.726501 6.689000 # Og 
437 146 5 0.651200 35.652748 19.726501 5.529000 # Cg 
438 146 10 -0.325600 35.652748 19.726501 4.369000 # Og 
439 147 10 -0.325600 35.652748 19.726501 8.146000 # Og 
440 147 5 0.651200 35.652748 19.726501 6.986000 # Cg 
441 147 10 -0.325600 35.652748 19.726501 5.826000 # Og 
442 148 10 -0.325600 35.652748 19.727501 9.602000 # Og 
443 148 5 0.651200 35.652748 19.727501 8.442000 # Cg 
444 148 10 -0.325600 35.652748 19.727501 7.282000 # Og 
445 149 10 -0.325600 35.653748 19.727501 11.059000 # Og 
446 149 5 0.651200 35.653748 19.727501 9.899000 # Cg 
447 149 10 -0.325600 35.653748 19.727501 8.739000 # Og 
448 150 10 -0.325600 35.653748 19.728500 12.515000 # Og 
449 150 5 0.651200 35.653748 19.728500 11.355000 # Cg 
450 150 10 -0.325600 35.653748 19.728500 10.195000 # Og 
451 151 10 -0.325600 35.653748 19.728500 13.971000 # Og 
452 151 5 0.651200 35.653748 19.728500 12.811000 # Cg 
453 151 10 -0.325600 35.653748 19.728500 11.651000 # Og 
454 152 10 -0.325600 35.653748 19.728500 15.428000 # Og 
455 152 5 0.651200 35.653748 19.728500 14.268000 # Cg 
456 152 10 -0.325600 35.653748 19.728500 13.108000 # Og 
457 153 10 -0.325600 41.139946 29.191446 16.883989 # Og 
458 153 5 0.651200 41.139946 29.191446 15.723989 # Cg 
459 153 10 -0.325600 41.139946 29.191446 14.563990 # Og 
460 154 10 -0.325600 41.139946 29.191446 18.340988 # Og 
461 154 5 0.651200 41.139946 29.191446 17.180988 # Cg 
462 154 10 -0.325600 41.139946 29.191446 16.020988 # Og 
463 155 10 -0.325600 41.139946 29.191446 19.796989 # Og 
464 155 5 0.651200 41.139946 29.191446 18.636990 # Cg 
465 155 10 -0.325600 41.139946 29.191446 17.476990 # Og 
466 156 10 -0.325600 41.139946 29.192446 21.252989 # Og 
467 156 5 0.651200 41.139946 29.192446 20.092989 # Cg 
468 156 10 -0.325600 41.139946 29.192446 18.932989 # Og 
469 157 10 -0.325600 41.140945 29.192446 22.709990 # Og 
470 157 5 0.651200 41.140945 29.192446 21.549990 # Cg 
471 157 10 -0.325600 41.140945 29.192446 20.389990 # Og 
472 158 10 -0.325600 41.140945 29.193445 24.165989 # Og 
473 158 5 0.651200 41.140945 29.193445 23.005989 # Cg 
474 158 10 -0.325600 41.140945 29.193445 21.845989 # Og 
475 159 10 -0.325600 41.140945 29.193445 25.622990 # Og 
476 159 5 0.651200 41.140945 29.193445 24.462990 # Cg 
477 159 10 -0.325600 41.140945 29.193445 23.302990 # Og 
478 160 10 -0.325600 41.140945 29.194447 27.078989 # Og 
479 160 5 0.651200 41.140945 29.194447 25.918989 # Cg 
480 160 10 -0.325600 41.140945 29.194447 24.758989 # Og 
481 161 10 -0.325600 41.137115 29.219545 0.864000 # Og 
482 161 5 0.651200 41.141949 29.194447 27.375990 # Cg 
483 161 10 -0.325600 41.141949 29.194447 26.215990 # Og 
484 162 10 -0.325600 41.137115 29.219545 2.320000 # Og 
485 162 5 0.651200 41.137115 29.219545 1.160000 # Cg 
486 162 10 -0.325600 41.137115 29.219545 0.000000 # Og 
487 163 10 -0.325600 41.137115 29.220545 3.776000 # Og 
488 163 5 0.651200 41.137115 29.220545 2.616000 # Cg 
489 163 10 -0.325600 41.137115 29.220545 1.456000 # Og 
490 164 10 -0.325600 41.137115 29.220545 5.233000 # Og 
491 164 5 0.651200 41.137115 29.220545 4.073000 # Cg 
492 164 10 -0.325600 41.137115 29.220545 2.913000 # Og 
493 165 10 -0.325600 41.138115 29.221544 6.689000 # Og 
494 165 5 0.651200 41.138115 29.221544 5.529000 # Cg 
495 165 10 -0.325600 41.138115 29.221544 4.369000 # Og 
496 166 10 -0.325600 41.138115 29.221544 8.146000 # Og 
497 166 5 0.651200 41.138115 29.221544 6.986000 # Cg 
498 166 10 -0.325600 41.138115 29.221544 5.826000 # Og 
499 167 10 -0.325600 41.138115 29.222546 9.602000 # Og 
500 167 5 0.651200 41.138115 29.222546 8.442000 # Cg 
501 167 10 -0.325600 41.138115 29.222546 7.282000 # Og 
502 168 10 -0.325600 41.139118 29.222546 11.059000 # Og 
503 168 5 0.651200 41.139118 29.222546 9.899000 # Cg 
504 168 10 -0.325600 41.139118 29.222546 8.739000 # Og 
505 169 10 -0.325600 41.139118 29.223545 12.515000 # Og 
506 169 5 0.651200 41.139118 29.223545 11.355000 # Cg 
507 169 10 -0.325600 41.139118 29.223545 10.195000 # Og 
508 170 10 -0.325600 41.139118 29.223545 13.971000 # Og 
509 170 5 0.651200 41.139118 29.223545 12.811000 # Cg 
510 170 10 -0.325600 41.139118 29.223545 11.651000 # Og 
511 171 10 -0.325600 41.139118 29.223545 15.428000 # Og 
512 171 5 0.651200 41.139118 29.223545 14.268000 # Cg 
513 171 10 -0.325600 41.139118 29.223545 13.108000 # Og 
514 172 10 -0.325600 35.655949 38.686447 16.883989 # Og 
515 172 5 0.651200 35.655949 38.686447 15.723989 # Cg 
516 172 10 -0.325600 35.655949 38.686447 14.563990 # Og 
517 173 10 -0.325600 35.655949 38.686447 18.340988 # Og 
518 173 5 0.651200 35.655949 38.686447 17.180988 # Cg 
519 173 10 -0.325600 35.655949 38.686447 16.020988 # Og 
520 174 10 -0.325600 35.655949 38.686447 19.796989 # Og 
521 174 5 0.651200 35.655949 38.686447 18.636990 # Cg 
522 174 10 -0.325600 35.655949 38.686447 17.476990 # Og 
523 175 10 -0.325600 35.655949 38.687447 21.252989 # Og 
524 175 5 0.651200 35.655949 38.687447 20.092989 # Cg 
525 175 10 -0.325600 35.655949 38.687447 18.932989 # Og 
526 176 10 -0.325600 35.656948 38.687447 22.709990 # Og 
527 176 5 0.651200 35.656948 38.687447 21.549990 # Cg 
528 176 10 -0.325600 35.656948 38.687447 20.389990 # Og 
529 177 10 -0.325600 35.656948 38.688446 24.165989 # Og 
530 177 5 0.651200 35.656948 38.688446 23.005989 # Cg 
531 177 10 -0.325600 35.656948 38.688446 21.845989 # Og 