LAMMPS data file. CGCMM style. atom_style full generated by VMD/TopoTools v1.5 on Sun Jun 11 11:09:04 PDT 2017
 1365 atoms
 14 bonds
 0 angles
 0 dihedrals
 0 impropers
 11 atom types
 1 bond types
 0 angle types
 0 dihedral types
 0 improper types
 -0.275390 43.500611  xlo xhi
 -2.144076 41.615922  ylo yhi
 -0.021506 27.658494  zlo zhi

# Pair Coeffs
#
# 1  Ca
# 2  Cb
# 3  Cc
# 4  Cd
# 5  Cg
# 6  H
# 7  Mg
# 8  Oa
# 9  Ob
# 10  Oc
# 11  Og

 Masses

 1 12.011000 # Ca
 2 12.011000 # Cb
 3 12.011000 # Cc
 4 12.011000 # Cd
 5 12.011000 # Cg
 6 1.008000 # H
 7 24.305000 # Mg
 8 15.999000 # Oa
 9 15.999000 # Ob
 10 15.999000 # Oc
 11 15.999000 # Og

 Atoms

1 1 11 -0.325600 19.152388 29.153452 2.320000 # Og 
2 1 5 0.651200 19.152388 29.153452 1.160000 # Cg 
3 1 11 -0.325600 19.152388 29.153452 0.000000 # Og 
4 2 11 -0.325600 13.681389 38.626453 2.320000 # Og 
5 2 5 0.651200 13.681389 38.626453 1.160000 # Cg 
6 2 11 -0.325600 13.681389 38.626453 0.000000 # Og 
7 3 11 -0.325600 30.096001 10.207000 2.320000 # Og 
8 3 5 0.651200 30.096001 10.207000 1.160000 # Cg 
9 3 11 -0.325600 30.096001 10.207000 0.000000 # Og 
10 4 11 -0.325600 24.625002 19.680000 2.320000 # Og 
11 4 5 0.651200 24.625002 19.680000 1.160000 # Cg 
12 4 11 -0.325600 24.625002 19.680000 0.000000 # Og 
13 5 11 -0.325600 30.096388 29.153452 2.320000 # Og 
14 5 5 0.651200 30.096388 29.153452 1.160000 # Cg 
15 5 11 -0.325600 30.096388 29.153452 0.000000 # Og 
16 6 11 -0.325600 24.625387 38.626453 2.320000 # Og 
17 6 5 0.651200 24.625387 38.626453 1.160000 # Cg 
18 6 11 -0.325600 24.625387 38.626453 0.000000 # Og 
19 7 11 -0.325600 41.040001 10.207000 2.320000 # Og 
20 7 5 0.651200 41.040001 10.207000 1.160000 # Cg 
21 7 11 -0.325600 41.040001 10.207000 0.000000 # Og 
22 8 6 0.186000 23.398062 37.097843 22.712994 # H LIG
23 8 6 0.186000 28.529060 30.732845 18.235992 # H LIG
24 8 6 0.186000 28.505062 28.451845 24.192993 # H LIG
25 8 6 0.186000 27.286060 30.087845 20.400993 # H LIG
26 8 6 0.186000 10.296674 0.991393 21.867992 # H LIG
27 8 6 0.186000 30.210060 37.762844 22.837994 # H LIG
28 8 6 0.186000 31.421062 36.944843 18.100994 # H LIG
29 8 6 0.186000 21.333061 36.784843 19.557993 # H LIG
30 8 6 0.186000 23.297060 35.640846 20.527992 # H LIG
31 8 6 0.186000 42.357674 0.895393 18.805994 # H LIG
32 8 6 0.186000 32.281673 1.050393 17.348993 # H LIG
33 8 6 0.186000 34.243675 2.191393 23.295994 # H LIG
34 8 6 0.186000 39.514675 9.393394 19.663994 # H LIG
35 8 6 0.186000 34.349674 0.736393 21.112993 # H LIG
36 8 6 0.186000 39.535675 7.122394 18.690994 # H LIG
37 8 6 0.186000 41.148674 0.075392 20.986994 # H LIG
38 8 6 0.186000 21.234060 36.839844 21.959993 # H LIG
39 8 6 0.186000 38.199677 7.754394 23.422993 # H LIG
40 8 7 1.560000 26.851061 33.809845 18.408993 # Mg LIG
41 8 7 1.560000 28.410061 34.723843 23.022993 # Mg LIG
42 8 7 1.560000 26.833061 35.615845 20.716993 # Mg LIG
43 8 7 1.560000 37.779675 2.228392 23.105993 # Mg LIG
44 8 7 1.560000 37.793674 4.042393 18.494993 # Mg LIG
45 8 7 1.560000 39.353676 3.123393 20.800993 # Mg LIG
46 8 3 0.456000 27.957062 31.715845 23.336994 # Cc LIG
47 8 2 -0.314000 24.453060 36.095844 17.347994 # Cb LIG
48 8 4 -0.234000 23.337061 36.768845 23.750994 # Cd LIG
49 8 2 -0.314000 22.199060 37.042843 17.589993 # Cb LIG
50 8 4 -0.234000 28.233061 29.301846 23.563993 # Cd LIG
51 8 4 -0.234000 28.256062 30.573845 24.110992 # Cd LIG
52 8 1 0.900000 25.584061 35.841843 23.344994 # Ca LIG
53 8 3 0.456000 29.661060 36.736843 21.030994 # Cc LIG
54 8 2 -0.314000 27.621061 31.504845 21.958994 # Cb LIG
55 8 4 -0.234000 27.587061 30.197845 21.442993 # Cd LIG
56 8 2 -0.314000 27.901062 29.076845 22.209993 # Cb LIG
57 8 4 -0.234000 9.709674 0.311393 21.246994 # Cd LIG
58 8 4 -0.234000 30.488060 37.586845 21.796993 # Cd LIG
59 8 1 0.900000 27.282063 32.608845 21.033993 # Ca LIG
60 8 3 0.456000 24.463060 35.687843 18.721992 # Cc LIG
61 8 2 -0.314000 30.018061 36.539845 19.655994 # Cb LIG
62 8 4 -0.234000 31.168060 37.162846 19.138992 # Cd LIG
63 8 2 -0.314000 10.082674 0.115392 19.898994 # Cb LIG
64 8 4 -0.234000 22.216061 36.620846 18.936993 # Cd LIG
65 8 4 -0.234000 23.310061 35.971844 19.487993 # Cd LIG
66 8 1 0.900000 29.233061 35.692844 18.731995 # Ca LIG
67 8 3 0.456000 35.409676 2.154393 18.180992 # Cc LIG
68 8 2 -0.314000 40.959675 1.300393 24.167994 # Cb LIG
69 8 4 -0.234000 42.104675 0.678393 17.766994 # Cd LIG
70 8 2 -0.314000 21.022060 37.716843 23.926994 # Cb LIG
71 8 4 -0.234000 33.165676 1.216393 17.967995 # Cd LIG
72 8 4 -0.234000 34.256676 1.867393 17.416992 # Cd LIG
73 8 1 0.900000 40.176674 2.158393 18.171993 # Ca LIG
74 8 3 0.456000 38.909676 6.131393 20.491993 # Cc LIG
75 8 2 -0.314000 35.401676 1.746393 19.554993 # Cb LIG
76 8 4 -0.234000 34.286674 1.065393 20.074993 # Cd LIG
77 8 2 -0.314000 33.149673 0.795393 19.314995 # Cb LIG
78 8 4 -0.234000 39.214676 8.544393 20.281994 # Cd LIG
79 8 4 -0.234000 39.237675 7.274392 19.729994 # Cd LIG
80 8 1 0.900000 36.530674 1.999393 20.477993 # Ca LIG
81 8 3 0.456000 40.603676 1.105393 22.793993 # Cc LIG
82 8 2 -0.314000 38.556675 6.340393 21.865993 # Cb LIG
83 8 4 -0.234000 38.517673 7.647393 22.384995 # Cd LIG
84 8 2 -0.314000 38.849674 8.768394 21.626993 # Cb LIG
85 8 4 -0.234000 20.649061 37.521843 22.579994 # Cd LIG
86 8 4 -0.234000 41.427673 0.250393 22.027994 # Cd LIG
87 8 1 0.900000 38.215675 5.235394 22.788994 # Ca LIG
88 8 10 -0.903000 39.534676 1.678393 22.210993 # Oc LIG
89 8 8 -0.899000 38.339676 4.019393 22.360992 # Oa LIG
90 8 9 -0.752000 40.569675 2.373393 19.362993 # Ob LIG
91 8 10 -0.903000 38.953674 4.920393 19.907993 # Oc LIG
92 8 8 -0.899000 37.522675 2.714392 20.051994 # Oa LIG
93 8 9 -0.752000 37.831676 5.466393 23.979994 # Ob LIG
94 8 10 -0.903000 36.437675 2.796393 17.598993 # Oc LIG
95 8 8 -0.899000 39.062675 2.662392 17.744993 # Oa LIG
96 8 9 -0.752000 36.521675 1.549392 21.668993 # Ob LIG
97 8 10 -0.903000 25.493061 35.048843 19.304993 # Oc LIG
98 8 8 -0.899000 28.117062 35.192844 19.156994 # Oa LIG
99 8 9 -0.752000 25.573061 36.290844 22.153994 # Ob LIG
100 8 10 -0.903000 28.008060 32.928844 23.914993 # Oc LIG
101 8 8 -0.899000 26.579062 35.131844 23.770994 # Oa LIG
102 8 9 -0.752000 26.903061 32.376846 19.841993 # Ob LIG
103 8 10 -0.903000 28.589062 36.169846 21.611994 # Oc LIG
104 8 8 -0.899000 27.400061 33.824844 21.461994 # Oa LIG
105 8 9 -0.752000 29.626060 35.476845 17.539993 # Ob LIG
106 8 6 0.186000 23.394436 37.125042 1.953001 # H LIG
107 8 6 0.186000 28.530270 30.734938 25.155991 # H LIG
108 8 6 0.186000 28.501436 28.479042 3.433002 # H LIG
109 8 6 0.186000 27.287270 30.089937 27.320990 # H LIG
110 8 6 0.186000 10.293049 1.018591 1.108001 # H LIG
111 8 6 0.186000 30.206436 37.790043 2.078001 # H LIG
112 8 6 0.186000 31.422268 36.946938 25.020990 # H LIG
113 8 6 0.186000 21.334269 36.786938 26.477989 # H LIG
114 8 6 0.186000 23.298269 35.642937 27.447990 # H LIG
115 8 6 0.186000 42.358883 0.897485 25.725990 # H LIG
116 8 6 0.186000 32.282883 1.052485 24.268990 # H LIG
117 8 6 0.186000 34.240051 2.218591 2.536001 # H LIG
118 8 6 0.186000 39.515884 9.395486 26.583990 # H LIG
119 8 6 0.186000 34.346050 0.763591 0.353001 # H LIG
120 8 6 0.186000 39.536884 7.124486 25.610991 # H LIG
121 8 6 0.186000 41.145050 0.102591 0.227001 # H LIG
122 8 6 0.186000 21.230436 36.867043 1.200001 # H LIG
123 8 6 0.186000 38.196053 7.781591 2.663002 # H LIG
124 8 7 1.560000 26.852268 33.811935 25.328991 # Mg LIG
125 8 7 1.560000 28.406437 34.751041 2.263001 # Mg LIG
126 8 7 1.560000 26.834269 35.617935 27.636990 # Mg LIG
127 8 7 1.560000 37.776051 2.255590 2.346002 # Mg LIG
128 8 7 1.560000 37.794884 4.044485 25.414989 # Mg LIG
129 8 7 1.560000 39.350052 3.150591 0.041001 # Mg LIG
130 8 3 0.456000 27.953436 31.743042 2.577002 # Cc LIG
131 8 2 -0.314000 24.454269 36.097939 24.267990 # Cb LIG
132 8 4 -0.234000 23.333437 36.796043 2.991002 # Cd LIG
133 8 2 -0.314000 22.200268 37.044937 24.509991 # Cb LIG
134 8 4 -0.234000 28.229437 29.329042 2.804001 # Cd LIG
135 8 4 -0.234000 28.252438 30.601044 3.351001 # Cd LIG
136 8 1 0.900000 25.580437 35.869041 2.585001 # Ca LIG
137 8 3 0.456000 29.657436 36.764042 0.271001 # Cc LIG
138 8 2 -0.314000 27.617437 31.532043 1.199001 # Cb LIG
139 8 4 -0.234000 27.583437 30.225042 0.683002 # Cd LIG
140 8 2 -0.314000 27.897436 29.104042 1.450001 # Cb LIG
141 8 4 -0.234000 9.706049 0.338591 0.487001 # Cd LIG
142 8 4 -0.234000 30.484436 37.614044 1.037002 # Cd LIG
143 8 1 0.900000 27.278437 32.636044 0.274001 # Ca LIG
144 8 3 0.456000 24.464270 35.689938 25.641991 # Cc LIG
145 8 2 -0.314000 30.019268 36.541935 26.575991 # Cb LIG
146 8 4 -0.234000 31.169270 37.164936 26.058990 # Cd LIG
147 8 2 -0.314000 10.083882 0.117485 26.818991 # Cb LIG
148 8 4 -0.234000 22.217268 36.622936 25.856991 # Cd LIG
149 8 4 -0.234000 23.311268 35.973938 26.407990 # Cd LIG
150 8 1 0.900000 29.234268 35.694939 25.651991 # Ca LIG
151 8 3 0.456000 35.410881 2.156485 25.100990 # Cc LIG
152 8 2 -0.314000 40.956051 1.327591 3.408001 # Cb LIG
153 8 4 -0.234000 42.105881 0.680485 24.686991 # Cd LIG
154 8 2 -0.314000 21.018436 37.744041 3.167001 # Cb LIG
155 8 4 -0.234000 33.166882 1.218486 24.887991 # Cd LIG
156 8 4 -0.234000 34.257881 1.869486 24.336990 # Cd LIG
157 8 1 0.900000 40.177883 2.160485 25.091990 # Ca LIG
158 8 3 0.456000 38.910881 6.133486 27.411991 # Cc LIG
159 8 2 -0.314000 35.402882 1.748485 26.474991 # Cb LIG
160 8 4 -0.234000 34.287884 1.067486 26.994991 # Cd LIG
161 8 2 -0.314000 33.150883 0.797485 26.234991 # Cb LIG
162 8 4 -0.234000 39.215881 8.546485 27.201990 # Cd LIG
163 8 4 -0.234000 39.238884 7.276484 26.649990 # Cd LIG
164 8 1 0.900000 36.531883 2.001486 27.397991 # Ca LIG
165 8 3 0.456000 40.600052 1.132591 2.034001 # Cc LIG
166 8 2 -0.314000 38.553051 6.367591 1.106001 # Cb LIG
167 8 4 -0.234000 38.514050 7.674591 1.625001 # Cd LIG
168 8 2 -0.314000 38.846050 8.795591 0.867002 # Cb LIG
169 8 4 -0.234000 20.645437 37.549042 1.820002 # Cd LIG
170 8 4 -0.234000 41.424049 0.277591 1.268002 # Cd LIG
171 8 1 0.900000 38.212051 5.262591 2.029001 # Ca LIG
172 8 10 -0.903000 39.531052 1.705591 1.451001 # Oc LIG
173 8 8 -0.899000 38.336052 4.046591 1.601001 # Oa LIG
174 8 9 -0.752000 40.570881 2.375485 26.282990 # Ob LIG
175 8 10 -0.903000 38.954884 4.922485 26.827990 # Oc LIG
176 8 8 -0.899000 37.523884 2.716485 26.971991 # Oa LIG
177 8 9 -0.752000 37.828049 5.493591 3.220001 # Ob LIG
178 8 10 -0.903000 36.438881 2.798486 24.518990 # Oc LIG
179 8 8 -0.899000 39.063881 2.664485 24.664989 # Oa LIG
180 8 9 -0.752000 36.518051 1.576591 0.909001 # Ob LIG
181 8 10 -0.903000 25.494268 35.050938 26.224991 # Oc LIG
182 8 8 -0.899000 28.118269 35.194939 26.076990 # Oa LIG
183 8 9 -0.752000 25.569437 36.318043 1.394001 # Ob LIG
184 8 10 -0.903000 28.004436 32.956043 3.155001 # Oc LIG
185 8 8 -0.899000 26.575438 35.159042 3.011002 # Oa LIG
186 8 9 -0.752000 26.904268 32.378937 26.761990 # Ob LIG
187 8 10 -0.903000 28.585436 36.197044 0.852001 # Oc LIG
188 8 8 -0.899000 27.396437 33.852043 0.702002 # Oa LIG
189 8 9 -0.752000 29.627270 35.478935 24.459990 # Ob LIG
190 8 6 0.186000 23.395645 37.127136 8.872999 # H LIG
191 8 6 0.186000 28.526646 30.762136 4.395998 # H LIG
192 8 6 0.186000 28.502644 28.481136 10.352999 # H LIG
193 8 6 0.186000 27.283646 30.117136 6.560999 # H LIG
194 8 6 0.186000 10.294257 1.020684 8.027998 # H LIG
195 8 6 0.186000 30.207645 37.792137 8.997999 # H LIG
196 8 6 0.186000 31.418644 36.974136 4.260999 # H LIG
197 8 6 0.186000 21.330645 36.814137 5.717999 # H LIG
198 8 6 0.186000 23.294643 35.670135 6.687999 # H LIG
199 8 6 0.186000 42.355259 0.924685 4.965999 # H LIG
200 8 6 0.186000 32.279259 1.079684 3.508999 # H LIG
201 8 6 0.186000 34.241257 2.220684 9.455998 # H LIG
202 8 6 0.186000 39.512260 9.422685 5.823998 # H LIG
203 8 6 0.186000 34.347260 0.765684 7.272999 # H LIG
204 8 6 0.186000 39.533257 7.151685 4.850999 # H LIG
205 8 6 0.186000 41.146259 0.104684 7.146998 # H LIG
206 8 6 0.186000 21.231644 36.869137 8.119999 # H LIG
207 8 6 0.186000 38.197258 7.783685 9.582998 # H LIG
208 8 7 1.560000 26.848644 33.839134 4.568998 # Mg LIG
209 8 7 1.560000 28.407644 34.753136 9.182999 # Mg LIG
210 8 7 1.560000 26.830645 35.645134 6.876999 # Mg LIG
211 8 7 1.560000 37.777260 2.257684 9.265999 # Mg LIG
212 8 7 1.560000 37.791260 4.071684 4.654999 # Mg LIG
213 8 7 1.560000 39.351257 3.152684 6.960999 # Mg LIG
214 8 3 0.456000 27.954643 31.745136 9.496999 # Cc LIG
215 8 2 -0.314000 24.450645 36.125137 3.507999 # Cb LIG
216 8 4 -0.234000 23.334644 36.798134 9.910999 # Cd LIG
217 8 2 -0.314000 22.196644 37.072136 3.749999 # Cb LIG
218 8 4 -0.234000 28.230644 29.331135 9.723999 # Cd LIG
219 8 4 -0.234000 28.253645 30.603136 10.270998 # Cd LIG
220 8 1 0.900000 25.581644 35.871136 9.504999 # Ca LIG
221 8 3 0.456000 29.658646 36.766136 7.190999 # Cc LIG
222 8 2 -0.314000 27.618645 31.534136 8.118999 # Cb LIG
223 8 4 -0.234000 27.584644 30.227135 7.602999 # Cd LIG
224 8 2 -0.314000 27.898643 29.106136 8.369999 # Cb LIG
225 8 4 -0.234000 9.707257 0.340684 7.406999 # Cd LIG
226 8 4 -0.234000 30.485645 37.616135 7.956999 # Cd LIG
227 8 1 0.900000 27.279644 32.638138 7.193998 # Ca LIG
228 8 3 0.456000 24.460644 35.717136 4.881999 # Cc LIG
229 8 2 -0.314000 30.015644 36.569138 5.815999 # Cb LIG
230 8 4 -0.234000 31.165646 37.192135 5.298999 # Cd LIG
231 8 2 -0.314000 10.080257 0.144684 6.058999 # Cb LIG
232 8 4 -0.234000 22.213644 36.650135 5.096999 # Cd LIG
233 8 4 -0.234000 23.307644 36.001137 5.647999 # Cd LIG
234 8 1 0.900000 29.230644 35.722137 4.891999 # Ca LIG
235 8 3 0.456000 35.407257 2.183684 4.340999 # Cc LIG
236 8 2 -0.314000 40.957260 1.329684 10.327999 # Cb LIG
237 8 4 -0.234000 42.102257 0.707685 3.926999 # Cd LIG
238 8 2 -0.314000 21.019646 37.746136 10.086998 # Cb LIG
239 8 4 -0.234000 33.163258 1.245685 4.127998 # Cd LIG
240 8 4 -0.234000 34.254257 1.896685 3.576999 # Cd LIG
241 8 1 0.900000 40.174259 2.187684 4.331999 # Ca LIG
242 8 3 0.456000 38.907257 6.160685 6.651999 # Cc LIG
243 8 2 -0.314000 35.399258 1.775684 5.714999 # Cb LIG
244 8 4 -0.234000 34.284256 1.094685 6.234999 # Cd LIG
245 8 2 -0.314000 33.147259 0.824684 5.474998 # Cb LIG
246 8 4 -0.234000 39.212257 8.573684 6.441998 # Cd LIG
247 8 4 -0.234000 39.235260 7.303683 5.889998 # Cd LIG
248 8 1 0.900000 36.528259 2.028685 6.637999 # Ca LIG
249 8 3 0.456000 40.601257 1.134685 8.953999 # Cc LIG
250 8 2 -0.314000 38.554260 6.369684 8.025999 # Cb LIG
251 8 4 -0.234000 38.515259 7.676684 8.544998 # Cd LIG
252 8 2 -0.314000 38.847260 8.797685 7.786999 # Cb LIG
253 8 4 -0.234000 20.646645 37.551136 8.739999 # Cd LIG
254 8 4 -0.234000 41.425259 0.279684 8.187999 # Cd LIG
255 8 1 0.900000 38.213257 5.264685 8.948998 # Ca LIG
256 8 10 -0.903000 39.532257 1.707685 8.370998 # Oc LIG
257 8 8 -0.899000 38.337257 4.048684 8.520998 # Oa LIG
258 8 9 -0.752000 40.567257 2.402684 5.522999 # Ob LIG
259 8 10 -0.903000 38.951260 4.949684 6.067999 # Oc LIG
260 8 8 -0.899000 37.520260 2.743684 6.211999 # Oa LIG
261 8 9 -0.752000 37.829258 5.495685 10.139998 # Ob LIG
262 8 10 -0.903000 36.435257 2.825685 3.758999 # Oc LIG
263 8 8 -0.899000 39.060257 2.691684 3.904999 # Oa LIG
264 8 9 -0.752000 36.519257 1.578684 7.828999 # Ob LIG
265 8 10 -0.903000 25.490644 35.078136 5.464999 # Oc LIG
266 8 8 -0.899000 28.114643 35.222137 5.316998 # Oa LIG
267 8 9 -0.752000 25.570644 36.320137 8.313999 # Ob LIG
268 8 10 -0.903000 28.005646 32.958138 10.074999 # Oc LIG
269 8 8 -0.899000 26.576645 35.161137 9.930999 # Oa LIG
270 8 9 -0.752000 26.900644 32.406136 6.001999 # Ob LIG
271 8 10 -0.903000 28.586643 36.199135 7.771998 # Oc LIG
272 8 8 -0.899000 27.397644 33.854137 7.621999 # Oa LIG
273 8 9 -0.752000 29.623646 35.506134 3.699999 # Ob LIG
274 8 6 0.186000 23.396852 37.129227 15.792995 # H LIG
275 8 6 0.186000 28.527853 30.764229 11.315995 # H LIG
276 8 6 0.186000 28.503853 28.483229 17.272995 # H LIG
277 8 6 0.186000 27.284853 30.119228 13.480995 # H LIG
278 8 6 0.186000 10.295465 1.022777 14.947995 # H LIG
279 8 6 0.186000 30.208853 37.794228 15.917995 # H LIG
280 8 6 0.186000 31.419853 36.976227 11.180995 # H LIG
281 8 6 0.186000 21.331852 36.816227 12.637995 # H LIG
282 8 6 0.186000 23.295853 35.672230 13.607995 # H LIG
283 8 6 0.186000 42.356468 0.926777 11.885996 # H LIG
284 8 6 0.186000 32.280464 1.081777 10.428995 # H LIG
285 8 6 0.186000 34.242466 2.222776 16.375996 # H LIG
286 8 6 0.186000 39.513466 9.424777 12.743996 # H LIG
287 8 6 0.186000 34.348465 0.767776 14.192995 # H LIG
288 8 6 0.186000 39.534466 7.153777 11.770995 # H LIG
289 8 6 0.186000 41.147469 0.106776 14.066996 # H LIG
290 8 6 0.186000 21.232853 36.871227 15.039995 # H LIG
291 8 6 0.186000 38.198467 7.785777 16.502995 # H LIG
292 8 7 1.560000 26.849854 33.841228 11.488996 # Mg LIG
293 8 7 1.560000 28.408852 34.755226 16.102995 # Mg LIG
294 8 7 1.560000 26.831852 35.647228 13.796995 # Mg LIG
295 8 7 1.560000 37.778465 2.259776 16.185995 # Mg LIG
296 8 7 1.560000 37.792465 4.073776 11.574995 # Mg LIG
297 8 7 1.560000 39.352467 3.154777 13.880995 # Mg LIG
298 8 3 0.456000 27.955853 31.747229 16.416996 # Cc LIG
299 8 2 -0.314000 24.451853 36.127228 10.427996 # Cb LIG
300 8 4 -0.234000 23.335854 36.800228 16.830996 # Cd LIG
301 8 2 -0.314000 22.197853 37.074226 10.669995 # Cb LIG
302 8 4 -0.234000 28.231853 29.333229 16.643995 # Cd LIG
303 8 4 -0.234000 28.254852 30.605228 17.190994 # Cd LIG
304 8 1 0.900000 25.582851 35.873230 16.424995 # Ca LIG
305 8 3 0.456000 29.659853 36.768227 14.110995 # Cc LIG
306 8 2 -0.314000 27.619854 31.536228 15.038996 # Cb LIG
307 8 4 -0.234000 27.585854 30.229229 14.522995 # Cd LIG
308 8 2 -0.314000 27.899853 29.108229 15.289995 # Cb LIG
309 8 4 -0.234000 9.708466 0.342776 14.326996 # Cd LIG
310 8 4 -0.234000 30.486853 37.618229 14.876995 # Cd LIG
311 8 1 0.900000 27.280853 32.640228 14.113996 # Ca LIG
312 8 3 0.456000 24.461853 35.719227 11.801995 # Cc LIG
313 8 2 -0.314000 30.016853 36.571228 12.735995 # Cb LIG
314 8 4 -0.234000 31.166853 37.194229 12.218995 # Cd LIG
315 8 2 -0.314000 10.081466 0.146776 12.978995 # Cb LIG
316 8 4 -0.234000 22.214853 36.652229 12.016995 # Cd LIG
317 8 4 -0.234000 23.308853 36.003227 12.567995 # Cd LIG
318 8 1 0.900000 29.231853 35.724228 11.811996 # Ca LIG
319 8 3 0.456000 35.408466 2.185777 11.260995 # Cc LIG
320 8 2 -0.314000 40.958466 1.331777 17.247995 # Cb LIG
321 8 4 -0.234000 42.103466 0.709777 10.846995 # Cd LIG
322 8 2 -0.314000 21.020853 37.748230 17.006996 # Cb LIG
323 8 4 -0.234000 33.164467 1.247777 11.047996 # Cd LIG
324 8 4 -0.234000 34.255466 1.898777 10.496995 # Cd LIG
325 8 1 0.900000 40.175468 2.189776 11.251995 # Ca LIG
326 8 3 0.456000 38.908466 6.162777 13.571995 # Cc LIG
327 8 2 -0.314000 35.400467 1.777777 12.634995 # Cb LIG
328 8 4 -0.234000 34.285469 1.096777 13.154995 # Cd LIG
329 8 2 -0.314000 33.148468 0.826777 12.394996 # Cb LIG
330 8 4 -0.234000 39.213467 8.575776 13.361996 # Cd LIG
331 8 4 -0.234000 39.236465 7.305776 12.809996 # Cd LIG
332 8 1 0.900000 36.529465 2.030777 13.557995 # Ca LIG
333 8 3 0.456000 40.602467 1.136777 15.873995 # Cc LIG
334 8 2 -0.314000 38.555466 6.371777 14.945995 # Cb LIG
335 8 4 -0.234000 38.516468 7.678777 15.464995 # Cd LIG
336 8 2 -0.314000 38.848465 8.799777 14.706995 # Cb LIG
337 8 4 -0.234000 20.647854 37.553230 15.659996 # Cd LIG
338 8 4 -0.234000 41.426468 0.281776 15.107996 # Cd LIG
339 8 1 0.900000 38.214466 5.266777 15.868996 # Ca LIG
340 8 10 -0.903000 39.533466 1.709777 15.290995 # Oc LIG
341 8 8 -0.899000 38.338467 4.050776 15.440995 # Oa LIG
342 8 9 -0.752000 40.568466 2.404777 12.442995 # Ob LIG
343 8 10 -0.903000 38.952465 4.951777 12.987995 # Oc LIG
344 8 8 -0.899000 37.521465 2.745776 13.131995 # Oa LIG
345 8 9 -0.752000 37.830467 5.497777 17.059996 # Ob LIG
346 8 10 -0.903000 36.436466 2.827777 10.678995 # Oc LIG
347 8 8 -0.899000 39.061466 2.693776 10.824995 # Oa LIG
348 8 9 -0.752000 36.520466 1.580776 14.748995 # Ob LIG
349 8 10 -0.903000 25.491852 35.080227 12.384995 # Oc LIG
350 8 8 -0.899000 28.115852 35.224228 12.236996 # Oa LIG
351 8 9 -0.752000 25.571854 36.322227 15.233995 # Ob LIG
352 8 10 -0.903000 28.006853 32.960228 16.994995 # Oc LIG
353 8 8 -0.899000 26.577854 35.163227 16.850996 # Oa LIG
354 8 9 -0.752000 26.901852 32.408226 12.921995 # Ob LIG
355 8 10 -0.903000 28.587852 36.201229 14.691996 # Oc LIG
356 8 8 -0.899000 27.398853 33.856228 14.541996 # Oa LIG
357 8 9 -0.752000 29.624853 35.508228 10.619995 # Ob LIG
358 8 6 0.186000 34.341370 18.151117 22.712994 # H LIG
359 8 6 0.186000 39.472366 11.786119 18.235992 # H LIG
360 8 6 0.186000 39.448368 9.505118 24.192993 # H LIG
361 8 6 0.186000 38.229370 11.141118 20.400993 # H LIG
362 8 6 0.186000 43.129368 19.938116 21.867992 # H LIG
363 8 6 0.186000 41.153366 18.816118 22.837994 # H LIG
364 8 6 0.186000 42.364368 17.998117 18.100994 # H LIG
365 8 6 0.186000 32.276367 17.838118 19.557993 # H LIG
366 8 6 0.186000 34.240368 16.694117 20.527992 # H LIG
367 8 6 0.186000 31.414368 19.842117 18.805994 # H LIG
368 8 6 0.186000 21.338367 19.997118 17.348993 # H LIG
369 8 6 0.186000 23.300367 21.138117 23.295994 # H LIG
370 8 6 0.186000 28.571369 28.340117 19.663994 # H LIG
371 8 6 0.186000 23.406366 19.683117 21.112993 # H LIG
372 8 6 0.186000 28.592369 26.069117 18.690994 # H LIG
373 8 6 0.186000 30.205368 19.022116 20.986994 # H LIG
374 8 6 0.186000 32.177368 17.893118 21.959993 # H LIG
375 8 6 0.186000 27.256367 26.701117 23.422993 # H LIG
376 8 7 1.560000 37.794369 14.863118 18.408993 # Mg LIG
377 8 7 1.560000 39.353367 15.777118 23.022993 # Mg LIG
378 8 7 1.560000 37.776367 16.669117 20.716993 # Mg LIG
379 8 7 1.560000 26.836367 21.175116 23.105993 # Mg LIG
380 8 7 1.560000 26.850367 22.989117 18.494993 # Mg LIG
381 8 7 1.560000 28.410368 22.070116 20.800993 # Mg LIG
382 8 3 0.456000 38.900368 12.769118 23.336994 # Cc LIG
383 8 2 -0.314000 35.396370 17.149117 17.347994 # Cb LIG
384 8 4 -0.234000 34.280369 17.822117 23.750994 # Cd LIG
385 8 2 -0.314000 33.142368 18.096117 17.589993 # Cb LIG
386 8 4 -0.234000 39.176369 10.355118 23.563993 # Cd LIG
387 8 4 -0.234000 39.199368 11.627118 24.110992 # Cd LIG
388 8 1 0.900000 36.527367 16.895117 23.344994 # Ca LIG
389 8 3 0.456000 40.604366 17.790117 21.030994 # Cc LIG
390 8 2 -0.314000 38.564369 12.558118 21.958994 # Cb LIG
391 8 4 -0.234000 38.530369 11.251118 21.442993 # Cd LIG
392 8 2 -0.314000 38.844368 10.130118 22.209993 # Cb LIG
393 8 4 -0.234000 42.542366 19.258116 21.246994 # Cd LIG
394 8 4 -0.234000 41.431366 18.640116 21.796993 # Cd LIG
395 8 1 0.900000 38.225368 13.662118 21.033993 # Ca LIG
396 8 3 0.456000 35.406368 16.741117 18.721992 # Cc LIG
397 8 2 -0.314000 40.961369 17.593117 19.655994 # Cb LIG
398 8 4 -0.234000 42.111366 18.216116 19.138992 # Cd LIG
399 8 2 -0.314000 42.915367 19.062117 19.898994 # Cb LIG
400 8 4 -0.234000 33.159367 17.674116 18.936993 # Cd LIG
401 8 4 -0.234000 34.253368 17.025118 19.487993 # Cd LIG
402 8 1 0.900000 40.176369 16.746117 18.731995 # Ca LIG
403 8 3 0.456000 24.466368 21.101118 18.180992 # Cc LIG
404 8 2 -0.314000 30.016369 20.247118 24.167994 # Cb LIG
405 8 4 -0.234000 31.161369 19.625116 17.766994 # Cd LIG
406 8 2 -0.314000 31.965368 18.770117 23.926994 # Cb LIG
407 8 4 -0.234000 22.222368 20.163118 17.967995 # Cd LIG
408 8 4 -0.234000 23.313368 20.814117 17.416992 # Cd LIG
409 8 1 0.900000 29.233368 21.105116 18.171993 # Ca LIG
410 8 3 0.456000 27.966368 25.078117 20.491993 # Cc LIG
411 8 2 -0.314000 24.458366 20.693117 19.554993 # Cb LIG
412 8 4 -0.234000 23.343367 20.012117 20.074993 # Cd LIG
413 8 2 -0.314000 22.206367 19.742117 19.314995 # Cb LIG
414 8 4 -0.234000 28.271368 27.491117 20.281994 # Cd LIG
415 8 4 -0.234000 28.294369 26.221117 19.729994 # Cd LIG
416 8 1 0.900000 25.587366 20.946117 20.477993 # Ca LIG
417 8 3 0.456000 29.660368 20.052118 22.793993 # Cc LIG
418 8 2 -0.314000 27.613367 25.287117 21.865993 # Cb LIG
419 8 4 -0.234000 27.574368 26.594118 22.384995 # Cd LIG
420 8 2 -0.314000 27.906368 27.715117 21.626993 # Cb LIG
421 8 4 -0.234000 31.592369 18.575117 22.579994 # Cd LIG
422 8 4 -0.234000 30.484367 19.197117 22.027994 # Cd LIG
423 8 1 0.900000 27.272367 24.182117 22.788994 # Ca LIG
424 8 10 -0.903000 28.591368 20.625116 22.210993 # Oc LIG
425 8 8 -0.899000 27.396368 22.966116 22.360992 # Oa LIG
426 8 9 -0.752000 29.626369 21.320116 19.362993 # Ob LIG
427 8 10 -0.903000 28.010368 23.867117 19.907993 # Oc LIG
428 8 8 -0.899000 26.579367 21.661116 20.051994 # Oa LIG
429 8 9 -0.752000 26.888367 24.413118 23.979994 # Ob LIG
430 8 10 -0.903000 25.494368 21.743116 17.598993 # Oc LIG
431 8 8 -0.899000 28.119368 21.609118 17.744993 # Oa LIG
432 8 9 -0.752000 25.578367 20.496117 21.668993 # Ob LIG
433 8 10 -0.903000 36.436367 16.102118 19.304993 # Oc LIG
434 8 8 -0.899000 39.060368 16.246117 19.156994 # Oa LIG
435 8 9 -0.752000 36.516369 17.344118 22.153994 # Ob LIG
436 8 10 -0.903000 38.951370 13.982118 23.914993 # Oc LIG
437 8 8 -0.899000 37.522369 16.185118 23.770994 # Oa LIG
438 8 9 -0.752000 37.846367 13.430118 19.841993 # Ob LIG
439 8 10 -0.903000 39.532368 17.223116 21.611994 # Oc LIG
440 8 8 -0.899000 38.343369 14.878118 21.461994 # Oa LIG
441 8 9 -0.752000 40.569366 16.530117 17.539993 # Ob LIG
442 8 6 0.186000 34.337746 18.178316 1.953001 # H LIG
443 8 6 0.186000 39.473576 11.788211 25.155991 # H LIG
444 8 6 0.186000 39.444744 9.532316 3.433002 # H LIG
445 8 6 0.186000 38.230576 11.143210 27.320990 # H LIG
446 8 6 0.186000 43.125744 19.965317 1.108001 # H LIG
447 8 6 0.186000 41.149742 18.843315 2.078001 # H LIG
448 8 6 0.186000 42.365574 18.000210 25.020990 # H LIG
449 8 6 0.186000 32.277576 17.840208 26.477989 # H LIG
450 8 6 0.186000 34.241577 16.696209 27.447990 # H LIG
451 8 6 0.186000 31.415577 19.844210 25.725990 # H LIG
452 8 6 0.186000 21.339575 19.999208 24.268990 # H LIG
453 8 6 0.186000 23.296743 21.165316 2.536001 # H LIG
454 8 6 0.186000 28.572575 28.342211 26.583990 # H LIG
455 8 6 0.186000 23.402742 19.710316 0.353001 # H LIG
456 8 6 0.186000 28.593575 26.071211 25.610991 # H LIG
457 8 6 0.186000 30.201744 19.049316 0.227001 # H LIG
458 8 6 0.186000 32.173744 17.920315 1.200001 # H LIG
459 8 6 0.186000 27.252743 26.728317 2.663002 # H LIG
460 8 7 1.560000 37.795574 14.865211 25.328991 # Mg LIG
461 8 7 1.560000 39.349743 15.804316 2.263001 # Mg LIG
462 8 7 1.560000 37.777576 16.671209 27.636990 # Mg LIG
463 8 7 1.560000 26.832743 21.202316 2.346002 # Mg LIG
464 8 7 1.560000 26.851574 22.991209 25.414989 # Mg LIG
465 8 7 1.560000 28.406742 22.097317 0.041001 # Mg LIG
466 8 3 0.456000 38.896744 12.796316 2.577002 # Cc LIG
467 8 2 -0.314000 35.397575 17.151209 24.267990 # Cb LIG
468 8 4 -0.234000 34.276741 17.849316 2.991002 # Cd LIG
469 8 2 -0.314000 33.143574 18.098209 24.509991 # Cb LIG
470 8 4 -0.234000 39.172745 10.382316 2.804001 # Cd LIG
471 8 4 -0.234000 39.195744 11.654316 3.351001 # Cd LIG
472 8 1 0.900000 36.523743 16.922316 2.585001 # Ca LIG
473 8 3 0.456000 40.600742 17.817316 0.271001 # Cc LIG
474 8 2 -0.314000 38.560745 12.585316 1.199001 # Cb LIG
475 8 4 -0.234000 38.526741 11.278316 0.683002 # Cd LIG
476 8 2 -0.314000 38.840744 10.157316 1.450001 # Cb LIG
477 8 4 -0.234000 42.538742 19.285316 0.487001 # Cd LIG
478 8 4 -0.234000 41.427742 18.667316 1.037002 # Cd LIG
479 8 1 0.900000 38.221745 13.689316 0.274001 # Ca LIG
480 8 3 0.456000 35.407578 16.743210 25.641991 # Cc LIG
481 8 2 -0.314000 40.962574 17.595209 26.575991 # Cb LIG
482 8 4 -0.234000 42.112576 18.218210 26.058990 # Cd LIG
483 8 2 -0.314000 42.916576 19.064209 26.818991 # Cb LIG
484 8 4 -0.234000 33.160576 17.676210 25.856991 # Cd LIG
485 8 4 -0.234000 34.254574 17.027208 26.407990 # Cd LIG
486 8 1 0.900000 40.177574 16.748209 25.651991 # Ca LIG
487 8 3 0.456000 24.467575 21.103209 25.100990 # Cc LIG
488 8 2 -0.314000 30.012743 20.274315 3.408001 # Cb LIG
489 8 4 -0.234000 31.162575 19.627211 24.686991 # Cd LIG
490 8 2 -0.314000 31.961742 18.797316 3.167001 # Cb LIG
491 8 4 -0.234000 22.223574 20.165209 24.887991 # Cd LIG
492 8 4 -0.234000 23.314573 20.816210 24.336990 # Cd LIG
493 8 1 0.900000 29.234575 21.107210 25.091990 # Ca LIG
494 8 3 0.456000 27.967575 25.080210 27.411991 # Cc LIG
495 8 2 -0.314000 24.459574 20.695210 26.474991 # Cb LIG
496 8 4 -0.234000 23.344574 20.014210 26.994991 # Cd LIG
497 8 2 -0.314000 22.207575 19.744209 26.234991 # Cb LIG
498 8 4 -0.234000 28.272575 27.493208 27.201990 # Cd LIG
499 8 4 -0.234000 28.295574 26.223207 26.649990 # Cd LIG
500 8 1 0.900000 25.588575 20.948210 27.397991 # Ca LIG
501 8 3 0.456000 29.656742 20.079315 2.034001 # Cc LIG
502 8 2 -0.314000 27.609743 25.314316 1.106001 # Cb LIG
503 8 4 -0.234000 27.570744 26.621315 1.625001 # Cd LIG
504 8 2 -0.314000 27.902744 27.742317 0.867002 # Cb LIG
505 8 4 -0.234000 31.588743 18.602316 1.820002 # Cd LIG
506 8 4 -0.234000 30.480743 19.224316 1.268002 # Cd LIG
507 8 1 0.900000 27.268744 24.209316 2.029001 # Ca LIG
508 8 10 -0.903000 28.587742 20.652317 1.451001 # Oc LIG
509 8 8 -0.899000 27.392744 22.993317 1.601001 # Oa LIG
510 8 9 -0.752000 29.627575 21.322210 26.282990 # Ob LIG
511 8 10 -0.903000 28.011576 23.869209 26.827990 # Oc LIG
512 8 8 -0.899000 26.580574 21.663210 26.971991 # Oa LIG
513 8 9 -0.752000 26.884743 24.440315 3.220001 # Ob LIG
514 8 10 -0.903000 25.495575 21.745211 24.518990 # Oc LIG
515 8 8 -0.899000 28.120575 21.611208 24.664989 # Oa LIG
516 8 9 -0.752000 25.574743 20.523315 0.909001 # Ob LIG
517 8 10 -0.903000 36.437576 16.104210 26.224991 # Oc LIG
518 8 8 -0.899000 39.061577 16.248209 26.076990 # Oa LIG
519 8 9 -0.752000 36.512741 17.371315 1.394001 # Ob LIG
520 8 10 -0.903000 38.947742 14.009315 3.155001 # Oc LIG
521 8 8 -0.899000 37.518745 16.212315 3.011002 # Oa LIG
522 8 9 -0.752000 37.847576 13.432210 26.761990 # Ob LIG
523 8 10 -0.903000 39.528744 17.250317 0.852001 # Oc LIG
524 8 8 -0.899000 38.339745 14.905315 0.702002 # Oa LIG
525 8 9 -0.752000 40.570576 16.532209 24.459990 # Ob LIG
526 8 6 0.186000 34.338951 18.180408 8.872999 # H LIG
527 8 6 0.186000 39.469952 11.815409 4.395998 # H LIG
528 8 6 0.186000 39.445950 9.534410 10.352999 # H LIG
529 8 6 0.186000 38.226952 11.170409 6.560999 # H LIG