LAMMPS data file. CGCMM style. atom_style full generated by VMD/TopoTools v1.5 on Mon Apr 24 10:59:26 PDT 2017
 2769 atoms
 118 bonds
 0 angles
 0 dihedrals
 0 impropers
 11 atom types
 1 bond types
 0 angle types
 0 dihedral types
 0 improper types
 0.451838 52.642840  xlo xhi
 0.325101 45.523500  ylo yhi
 -0.237620 27.289621  zlo zhi

# Pair Coeffs
#
# 1  Ca
# 2  Cb
# 3  Cc
# 4  Cd
# 5  Cg
# 6  H
# 7  Oa
# 8  Ob
# 9  Oc
# 10  Og
# 11  Zn

 Masses

 1 12.011000 # Ca
 2 12.011000 # Cb
 3 12.011000 # Cc
 4 12.011000 # Cd
 5 12.011000 # Cg
 6 1.008000 # H
 7 15.999000 # Oa
 8 15.999000 # Ob
 9 15.999000 # Oc
 10 15.999000 # Og
 11 65.379997 # Zn

 Atoms

1 1 10 -0.325600 52.190678 45.197601 17.000999 # Og 
2 1 5 0.651200 52.190678 45.197601 15.841001 # Cg 
3 1 10 -0.325600 52.190678 45.197601 14.681001 # Og 
4 2 10 -0.325600 52.190678 45.197601 18.836000 # Og 
5 2 5 0.651200 52.190678 45.197601 17.676001 # Cg 
6 2 10 -0.325600 52.190678 45.197601 16.516001 # Og 
7 3 10 -0.325600 52.190678 45.197601 20.671001 # Og 
8 3 5 0.651200 52.190678 45.197601 19.511002 # Cg 
9 3 10 -0.325600 52.190678 45.197601 18.351002 # Og 
10 4 10 -0.325600 52.190678 45.197601 22.506001 # Og 
11 4 5 0.651200 52.190678 45.197601 21.346001 # Cg 
12 4 10 -0.325600 52.190678 45.197601 20.186001 # Og 
13 5 10 -0.325600 52.190678 45.197601 24.342001 # Og 
14 5 5 0.651200 52.190678 45.197601 23.182001 # Cg 
15 5 10 -0.325600 52.190678 45.197601 22.021999 # Og 
16 6 10 -0.325600 52.190678 45.197601 26.177000 # Og 
17 6 5 0.651200 52.190678 45.197601 25.017000 # Cg 
18 6 10 -0.325600 52.190678 45.197601 23.857000 # Og 
19 7 10 -0.325600 52.190678 45.197601 0.485000 # Og 
20 7 5 0.651200 52.190678 45.197601 26.852001 # Cg 
21 7 10 -0.325600 52.190678 45.197601 25.692001 # Og 
22 8 10 -0.325600 52.190678 45.197601 2.320000 # Og 
23 8 5 0.651200 52.190678 45.197601 1.160000 # Cg 
24 8 10 -0.325600 52.190678 45.197601 0.000000 # Og 
25 9 10 -0.325600 52.190678 45.197601 4.155000 # Og 
26 9 5 0.651200 52.190678 45.197601 2.995000 # Cg 
27 9 10 -0.325600 52.190678 45.197601 1.835000 # Og 
28 10 10 -0.325600 52.190678 45.197601 5.990000 # Og 
29 10 5 0.651200 52.190678 45.197601 4.830000 # Cg 
30 10 10 -0.325600 52.190678 45.197601 3.670000 # Og 
31 11 10 -0.325600 52.190678 45.197601 7.825000 # Og 
32 11 5 0.651200 52.190678 45.197601 6.665000 # Cg 
33 11 10 -0.325600 52.190678 45.197601 5.505000 # Og 
34 12 10 -0.325600 52.190678 45.197601 9.661000 # Og 
35 12 5 0.651200 52.190678 45.197601 8.501000 # Cg 
36 12 10 -0.325600 52.190678 45.197601 7.341000 # Og 
37 13 10 -0.325600 52.190678 45.197601 11.496000 # Og 
38 13 5 0.651200 52.190678 45.197601 10.336000 # Cg 
39 13 10 -0.325600 52.190678 45.197601 9.176000 # Og 
40 14 10 -0.325600 52.190678 45.197601 13.331000 # Og 
41 14 5 0.651200 52.190678 45.197601 12.171000 # Cg 
42 14 10 -0.325600 52.190678 45.197601 11.011000 # Og 
43 15 10 -0.325600 52.190678 45.197601 15.166000 # Og 
44 15 5 0.651200 52.190678 45.197601 14.006000 # Cg 
45 15 10 -0.325600 52.190678 45.197601 12.846000 # Og 
46 16 10 -0.325600 52.190678 22.599600 17.000999 # Og 
47 16 5 0.651200 52.190678 22.599600 15.841001 # Cg 
48 16 10 -0.325600 52.190678 22.599600 14.681001 # Og 
49 17 10 -0.325600 52.190678 22.599600 18.836000 # Og 
50 17 5 0.651200 52.190678 22.599600 17.676001 # Cg 
51 17 10 -0.325600 52.190678 22.599600 16.516001 # Og 
52 18 10 -0.325600 52.190678 22.599600 20.671001 # Og 
53 18 5 0.651200 52.190678 22.599600 19.511002 # Cg 
54 18 10 -0.325600 52.190678 22.599600 18.351002 # Og 
55 19 10 -0.325600 52.190678 22.599600 22.506001 # Og 
56 19 5 0.651200 52.190678 22.599600 21.346001 # Cg 
57 19 10 -0.325600 52.190678 22.599600 20.186001 # Og 
58 20 10 -0.325600 52.190678 22.599600 24.342001 # Og 
59 20 5 0.651200 52.190678 22.599600 23.182001 # Cg 
60 20 10 -0.325600 52.190678 22.599600 22.021999 # Og 
61 21 10 -0.325600 52.190678 22.599600 26.177000 # Og 
62 21 5 0.651200 52.190678 22.599600 25.017000 # Cg 
63 21 10 -0.325600 52.190678 22.599600 23.857000 # Og 
64 22 10 -0.325600 52.190678 22.599600 0.485000 # Og 
65 22 5 0.651200 52.190678 22.599600 26.852001 # Cg 
66 22 10 -0.325600 52.190678 22.599600 25.692001 # Og 
67 23 10 -0.325600 52.190678 22.599600 2.320000 # Og 
68 23 5 0.651200 52.190678 22.599600 1.160000 # Cg 
69 23 10 -0.325600 52.190678 22.599600 0.000000 # Og 
70 24 10 -0.325600 52.190678 22.599600 4.155000 # Og 
71 24 5 0.651200 52.190678 22.599600 2.995000 # Cg 
72 24 10 -0.325600 52.190678 22.599600 1.835000 # Og 
73 25 10 -0.325600 52.190678 22.599600 5.990000 # Og 
74 25 5 0.651200 52.190678 22.599600 4.830000 # Cg 
75 25 10 -0.325600 52.190678 22.599600 3.670000 # Og 
76 26 10 -0.325600 52.190678 22.599600 7.825000 # Og 
77 26 5 0.651200 52.190678 22.599600 6.665000 # Cg 
78 26 10 -0.325600 52.190678 22.599600 5.505000 # Og 
79 27 10 -0.325600 52.190678 22.599600 9.661000 # Og 
80 27 5 0.651200 52.190678 22.599600 8.501000 # Cg 
81 27 10 -0.325600 52.190678 22.599600 7.341000 # Og 
82 28 10 -0.325600 52.190678 22.599600 11.496000 # Og 
83 28 5 0.651200 52.190678 22.599600 10.336000 # Cg 
84 28 10 -0.325600 52.190678 22.599600 9.176000 # Og 
85 29 10 -0.325600 52.190678 22.599600 13.331000 # Og 
86 29 5 0.651200 52.190678 22.599600 12.171000 # Cg 
87 29 10 -0.325600 52.190678 22.599600 11.011000 # Og 
88 30 10 -0.325600 52.190678 22.599600 15.166000 # Og 
89 30 5 0.651200 52.190678 22.599600 14.006000 # Cg 
90 30 10 -0.325600 52.190678 22.599600 12.846000 # Og 
91 31 10 -0.325600 26.095676 45.197601 17.000999 # Og 
92 31 5 0.651200 26.095676 45.197601 15.841001 # Cg 
93 31 10 -0.325600 26.095676 45.197601 14.681001 # Og 
94 32 10 -0.325600 26.095676 45.197601 18.836000 # Og 
95 32 5 0.651200 26.095676 45.197601 17.676001 # Cg 
96 32 10 -0.325600 26.095676 45.197601 16.516001 # Og 
97 33 10 -0.325600 26.095676 45.197601 20.671001 # Og 
98 33 5 0.651200 26.095676 45.197601 19.511002 # Cg 
99 33 10 -0.325600 26.095676 45.197601 18.351002 # Og 
100 34 10 -0.325600 26.095676 45.197601 22.506001 # Og 
101 34 5 0.651200 26.095676 45.197601 21.346001 # Cg 
102 34 10 -0.325600 26.095676 45.197601 20.186001 # Og 
103 35 10 -0.325600 26.095676 45.197601 24.342001 # Og 
104 35 5 0.651200 26.095676 45.197601 23.182001 # Cg 
105 35 10 -0.325600 26.095676 45.197601 22.021999 # Og 
106 36 10 -0.325600 26.095676 45.197601 26.177000 # Og 
107 36 5 0.651200 26.095676 45.197601 25.017000 # Cg 
108 36 10 -0.325600 26.095676 45.197601 23.857000 # Og 
109 37 10 -0.325600 26.095676 45.197601 0.485000 # Og 
110 37 5 0.651200 26.095676 45.197601 26.852001 # Cg 
111 37 10 -0.325600 26.095676 45.197601 25.692001 # Og 
112 38 10 -0.325600 26.095676 45.197601 2.320000 # Og 
113 38 5 0.651200 26.095676 45.197601 1.160000 # Cg 
114 38 10 -0.325600 26.095676 45.197601 0.000000 # Og 
115 39 10 -0.325600 26.095676 45.197601 4.155000 # Og 
116 39 5 0.651200 26.095676 45.197601 2.995000 # Cg 
117 39 10 -0.325600 26.095676 45.197601 1.835000 # Og 
118 40 10 -0.325600 26.095676 45.197601 5.990000 # Og 
119 40 5 0.651200 26.095676 45.197601 4.830000 # Cg 
120 40 10 -0.325600 26.095676 45.197601 3.670000 # Og 
121 41 10 -0.325600 26.095676 45.197601 7.825000 # Og 
122 41 5 0.651200 26.095676 45.197601 6.665000 # Cg 
123 41 10 -0.325600 26.095676 45.197601 5.505000 # Og 
124 42 10 -0.325600 26.095676 45.197601 9.661000 # Og 
125 42 5 0.651200 26.095676 45.197601 8.501000 # Cg 
126 42 10 -0.325600 26.095676 45.197601 7.341000 # Og 
127 43 10 -0.325600 26.095676 45.197601 11.496000 # Og 
128 43 5 0.651200 26.095676 45.197601 10.336000 # Cg 
129 43 10 -0.325600 26.095676 45.197601 9.176000 # Og 
130 44 10 -0.325600 26.095676 45.197601 13.331000 # Og 
131 44 5 0.651200 26.095676 45.197601 12.171000 # Cg 
132 44 10 -0.325600 26.095676 45.197601 11.011000 # Og 
133 45 10 -0.325600 26.095676 45.197601 15.166000 # Og 
134 45 5 0.651200 26.095676 45.197601 14.006000 # Cg 
135 45 10 -0.325600 26.095676 45.197601 12.846000 # Og 
136 46 10 -0.325600 26.095676 22.599600 17.000999 # Og 
137 46 5 0.651200 26.095676 22.599600 15.841001 # Cg 
138 46 10 -0.325600 26.095676 22.599600 14.681001 # Og 
139 47 10 -0.325600 26.095676 22.599600 18.836000 # Og 
140 47 5 0.651200 26.095676 22.599600 17.676001 # Cg 
141 47 10 -0.325600 26.095676 22.599600 16.516001 # Og 
142 48 10 -0.325600 26.095676 22.599600 20.671001 # Og 
143 48 5 0.651200 26.095676 22.599600 19.511002 # Cg 
144 48 10 -0.325600 26.095676 22.599600 18.351002 # Og 
145 49 10 -0.325600 26.095676 22.599600 22.506001 # Og 
146 49 5 0.651200 26.095676 22.599600 21.346001 # Cg 
147 49 10 -0.325600 26.095676 22.599600 20.186001 # Og 
148 50 10 -0.325600 26.095676 22.599600 24.342001 # Og 
149 50 5 0.651200 26.095676 22.599600 23.182001 # Cg 
150 50 10 -0.325600 26.095676 22.599600 22.021999 # Og 
151 51 10 -0.325600 26.095676 22.599600 26.177000 # Og 
152 51 5 0.651200 26.095676 22.599600 25.017000 # Cg 
153 51 10 -0.325600 26.095676 22.599600 23.857000 # Og 
154 52 10 -0.325600 26.095676 22.599600 0.485000 # Og 
155 52 5 0.651200 26.095676 22.599600 26.852001 # Cg 
156 52 10 -0.325600 26.095676 22.599600 25.692001 # Og 
157 53 10 -0.325600 26.095676 22.599600 2.320000 # Og 
158 53 5 0.651200 26.095676 22.599600 1.160000 # Cg 
159 53 10 -0.325600 26.095676 22.599600 0.000000 # Og 
160 54 10 -0.325600 26.095676 22.599600 4.155000 # Og 
161 54 5 0.651200 26.095676 22.599600 2.995000 # Cg 
162 54 10 -0.325600 26.095676 22.599600 1.835000 # Og 
163 55 10 -0.325600 26.095676 22.599600 5.990000 # Og 
164 55 5 0.651200 26.095676 22.599600 4.830000 # Cg 
165 55 10 -0.325600 26.095676 22.599600 3.670000 # Og 
166 56 10 -0.325600 26.095676 22.599600 7.825000 # Og 
167 56 5 0.651200 26.095676 22.599600 6.665000 # Cg 
168 56 10 -0.325600 26.095676 22.599600 5.505000 # Og 
169 57 10 -0.325600 26.095676 22.599600 9.661000 # Og 
170 57 5 0.651200 26.095676 22.599600 8.501000 # Cg 
171 57 10 -0.325600 26.095676 22.599600 7.341000 # Og 
172 58 10 -0.325600 26.095676 22.599600 11.496000 # Og 
173 58 5 0.651200 26.095676 22.599600 10.336000 # Cg 
174 58 10 -0.325600 26.095676 22.599600 9.176000 # Og 
175 59 10 -0.325600 26.095676 22.599600 13.331000 # Og 
176 59 5 0.651200 26.095676 22.599600 12.171000 # Cg 
177 59 10 -0.325600 26.095676 22.599600 11.011000 # Og 
178 60 11 1.209000 5.331000 7.994000 21.569241 # Zn LIG
179 60 11 1.209000 18.378000 30.594000 21.569241 # Zn LIG
180 60 11 1.209000 31.426001 7.994000 21.569241 # Zn LIG
181 60 11 1.209000 44.473999 30.594000 21.569241 # Zn LIG
182 60 1 0.841000 5.724000 9.170000 18.988241 # Ca LIG
183 60 1 0.841000 18.771999 31.768999 18.988241 # Ca LIG
184 60 1 0.841000 31.819000 9.170000 18.988241 # Ca LIG
185 60 1 0.841000 44.867001 31.768999 18.988241 # Ca LIG
186 60 2 -0.298000 6.104000 10.244000 18.040241 # Cb LIG
187 60 2 -0.298000 19.150999 32.842999 18.040241 # Cb LIG
188 60 2 -0.298000 32.199001 10.244000 18.040241 # Cb LIG
189 60 2 -0.298000 45.247002 32.842999 18.040241 # Cb LIG
190 60 4 -0.170000 6.937000 11.262000 18.520241 # Cd LIG
191 60 4 -0.170000 19.983999 33.861000 18.520241 # Cd LIG
192 60 4 -0.170000 33.032001 11.262000 18.520241 # Cd LIG
193 60 4 -0.170000 46.080002 33.861000 18.520241 # Cd LIG
194 60 6 0.172000 7.258000 11.221000 19.558241 # H LIG
195 60 6 0.172000 20.306000 33.820000 19.558241 # H LIG
196 60 6 0.172000 33.353001 11.221000 19.558241 # H LIG
197 60 6 0.172000 46.401001 33.820000 19.558241 # H LIG
198 60 8 -0.671000 6.191000 9.168000 20.176241 # Ob LIG
199 60 8 -0.671000 19.238001 31.767000 20.176241 # Ob LIG
200 60 8 -0.671000 32.285999 9.168000 20.176241 # Ob LIG
201 60 8 -0.671000 45.334000 31.767000 20.176241 # Ob LIG
202 60 7 -0.719000 4.915000 8.263000 18.567242 # Oa LIG
203 60 7 -0.719000 17.962999 30.862000 18.567242 # Oa LIG
204 60 7 -0.719000 31.010000 8.263000 18.567242 # Oa LIG
205 60 7 -0.719000 44.057999 30.862000 18.567242 # Oa LIG
206 60 9 -0.740000 8.191000 13.251000 18.306240 # Oc LIG
207 60 9 -0.740000 21.238001 35.849998 18.306240 # Oc LIG
208 60 9 -0.740000 34.285999 13.251000 18.306240 # Oc LIG
209 60 9 -0.740000 47.334000 35.849998 18.306240 # Oc LIG
210 60 11 1.209000 4.258000 6.452000 19.275242 # Zn LIG
211 60 11 1.209000 17.306000 29.052000 19.275242 # Zn LIG
212 60 11 1.209000 30.353001 6.452000 19.275242 # Zn LIG
213 60 11 1.209000 43.401001 29.052000 19.275242 # Zn LIG
214 60 11 1.209000 3.459000 8.152000 23.863241 # Zn LIG
215 60 11 1.209000 16.507000 30.750999 23.863241 # Zn LIG
216 60 11 1.209000 29.554001 8.152000 23.863241 # Zn LIG
217 60 11 1.209000 42.602001 30.750999 23.863241 # Zn LIG
218 60 11 1.209000 7.717000 14.605000 19.721241 # Zn LIG
219 60 11 1.209000 20.764999 37.203999 19.721241 # Zn LIG
220 60 11 1.209000 33.812000 14.605000 19.721241 # Zn LIG
221 60 11 1.209000 46.860001 37.203999 19.721241 # Zn LIG
222 60 7 -0.719000 4.698000 6.678000 23.155241 # Oa LIG
223 60 7 -0.719000 17.746000 29.277000 23.155241 # Oa LIG
224 60 7 -0.719000 30.794001 6.678000 23.155241 # Oa LIG
225 60 7 -0.719000 43.841000 29.277000 23.155241 # Oa LIG
226 60 7 -0.719000 3.434000 7.658000 20.861240 # Oa LIG
227 60 7 -0.719000 16.482000 30.257000 20.861240 # Oa LIG
228 60 7 -0.719000 29.530001 7.658000 20.861240 # Oa LIG
229 60 7 -0.719000 42.577000 30.257000 20.861240 # Oa LIG
230 60 9 -0.740000 4.857000 9.348000 22.984241 # Oc LIG
231 60 9 -0.740000 17.905001 31.947001 22.984241 # Oc LIG
232 60 9 -0.740000 30.952000 9.348000 22.984241 # Oc LIG
233 60 9 -0.740000 44.000000 31.947001 22.984241 # Oc LIG
234 60 9 -0.740000 5.667000 6.186000 20.690241 # Oc LIG
235 60 9 -0.740000 18.715000 28.785000 20.690241 # Oc LIG
236 60 9 -0.740000 31.763000 6.186000 20.690241 # Oc LIG
237 60 9 -0.740000 44.810001 28.785000 20.690241 # Oc LIG
238 60 3 0.376000 5.670000 10.272000 23.559240 # Cc LIG
239 60 3 0.376000 18.718000 32.870998 23.559240 # Cc LIG
240 60 3 0.376000 31.764999 10.272000 23.559240 # Cc LIG
241 60 3 0.376000 44.813000 32.870998 23.559240 # Cc LIG
242 60 1 0.841000 7.324000 13.429000 22.302240 # Ca LIG
243 60 1 0.841000 20.371000 36.028000 22.302240 # Ca LIG
244 60 1 0.841000 33.418999 13.429000 22.302240 # Ca LIG
245 60 1 0.841000 46.466999 36.028000 22.302240 # Ca LIG
246 60 2 -0.298000 6.944000 12.355000 23.250240 # Cb LIG
247 60 2 -0.298000 19.992001 34.953999 23.250240 # Cb LIG
248 60 2 -0.298000 33.039001 12.355000 23.250240 # Cb LIG
249 60 2 -0.298000 46.087002 34.953999 23.250240 # Cb LIG
250 60 3 0.376000 7.378000 12.327000 17.730240 # Cc LIG
251 60 3 0.376000 20.424999 34.925999 17.730240 # Cc LIG
252 60 3 0.376000 33.473000 12.327000 17.730240 # Cc LIG
253 60 3 0.376000 46.521000 34.925999 17.730240 # Cc LIG
254 60 4 -0.170000 6.111000 11.337000 22.770241 # Cd LIG
255 60 4 -0.170000 19.159000 33.936001 22.770241 # Cd LIG
256 60 4 -0.170000 32.206001 11.337000 22.770241 # Cd LIG
257 60 4 -0.170000 45.254002 33.936001 22.770241 # Cd LIG
258 60 6 0.172000 5.790000 11.379000 21.732241 # H LIG
259 60 6 0.172000 18.837000 33.978001 21.732241 # H LIG
260 60 6 0.172000 31.885000 11.379000 21.732241 # H LIG
261 60 6 0.172000 44.932999 33.978001 21.732241 # H LIG
262 60 8 -0.671000 6.857000 13.431000 21.113241 # Ob LIG
263 60 8 -0.671000 19.905001 36.029999 21.113241 # Ob LIG
264 60 8 -0.671000 32.952000 13.431000 21.113241 # Ob LIG
265 60 8 -0.671000 46.000000 36.029999 21.113241 # Ob LIG
266 60 7 -0.719000 8.133000 14.336000 22.723240 # Oa LIG
267 60 7 -0.719000 21.180000 36.936001 22.723240 # Oa LIG
268 60 7 -0.719000 34.228001 14.336000 22.723240 # Oa LIG
269 60 7 -0.719000 47.276001 36.936001 22.723240 # Oa LIG
270 60 11 1.209000 8.790000 16.146999 22.015240 # Zn LIG
271 60 11 1.209000 21.837000 38.745998 22.015240 # Zn LIG
272 60 11 1.209000 34.884998 16.146999 22.015240 # Zn LIG
273 60 11 1.209000 47.932999 38.745998 22.015240 # Zn LIG
274 60 11 1.209000 9.589000 14.447000 17.427240 # Zn LIG
275 60 11 1.209000 22.636000 37.046001 17.427240 # Zn LIG
276 60 11 1.209000 35.683998 14.447000 17.427240 # Zn LIG
277 60 11 1.209000 48.731998 37.046001 17.427240 # Zn LIG
278 60 7 -0.719000 8.349000 15.921000 18.135241 # Oa LIG
279 60 7 -0.719000 21.396999 38.520000 18.135241 # Oa LIG
280 60 7 -0.719000 34.445000 15.921000 18.135241 # Oa LIG
281 60 7 -0.719000 47.492001 38.520000 18.135241 # Oa LIG
282 60 7 -0.719000 9.613000 14.941000 20.429241 # Oa LIG
283 60 7 -0.719000 22.660999 37.540001 20.429241 # Oa LIG
284 60 7 -0.719000 35.709000 14.941000 20.429241 # Oa LIG
285 60 7 -0.719000 48.756001 37.540001 20.429241 # Oa LIG
286 60 9 -0.740000 7.380000 16.413000 20.600241 # Oc LIG
287 60 9 -0.740000 20.427999 39.013000 20.600241 # Oc LIG
288 60 9 -0.740000 33.476002 16.413000 20.600241 # Oc LIG
289 60 9 -0.740000 46.522999 39.013000 20.600241 # Oc LIG
290 60 11 1.209000 8.790000 31.212999 19.721241 # Zn LIG
291 60 11 1.209000 21.837000 8.614000 19.721241 # Zn LIG
292 60 11 1.209000 34.884998 31.212999 19.721241 # Zn LIG
293 60 11 1.209000 47.932999 8.614000 19.721241 # Zn LIG
294 60 11 1.209000 9.589000 29.513000 22.015240 # Zn LIG
295 60 11 1.209000 22.636000 6.914000 22.015240 # Zn LIG
296 60 11 1.209000 35.683998 29.513000 22.015240 # Zn LIG
297 60 11 1.209000 48.731998 6.914000 22.015240 # Zn LIG
298 60 7 -0.719000 9.613000 30.007000 18.135241 # Oa LIG
299 60 7 -0.719000 22.660999 7.408000 18.135241 # Oa LIG
300 60 7 -0.719000 35.709000 30.007000 18.135241 # Oa LIG
301 60 7 -0.719000 48.756001 7.408000 18.135241 # Oa LIG
302 60 7 -0.719000 8.349000 30.987000 22.723240 # Oa LIG
303 60 7 -0.719000 21.396999 8.388000 22.723240 # Oa LIG
304 60 7 -0.719000 34.445000 30.987000 22.723240 # Oa LIG
305 60 7 -0.719000 47.492001 8.388000 22.723240 # Oa LIG
306 60 7 -0.719000 4.698000 21.743999 20.861240 # Oa LIG
307 60 7 -0.719000 17.746000 44.342999 20.861240 # Oa LIG
308 60 7 -0.719000 30.794001 21.743999 20.861240 # Oa LIG
309 60 7 -0.719000 43.841000 44.342999 20.861240 # Oa LIG
310 60 9 -0.740000 5.667000 21.252001 18.396240 # Oc LIG
311 60 9 -0.740000 18.715000 43.851002 18.396240 # Oc LIG
312 60 9 -0.740000 31.763000 21.252001 18.396240 # Oc LIG
313 60 9 -0.740000 44.810001 43.851002 18.396240 # Oc LIG
314 60 11 1.209000 4.258000 21.518000 23.863241 # Zn LIG
315 60 11 1.209000 17.306000 44.118000 23.863241 # Zn LIG
316 60 11 1.209000 30.353001 21.518000 23.863241 # Zn LIG
317 60 11 1.209000 43.401001 44.118000 23.863241 # Zn LIG
318 60 11 1.209000 8.790000 1.081000 17.427240 # Zn LIG
319 60 11 1.209000 21.837000 23.680000 17.427240 # Zn LIG
320 60 11 1.209000 34.884998 1.081000 17.427240 # Zn LIG
321 60 11 1.209000 47.932999 23.680000 17.427240 # Zn LIG
322 60 7 -0.719000 8.349000 0.855000 20.429241 # Oa LIG
323 60 7 -0.719000 21.396999 23.454000 20.429241 # Oa LIG
324 60 7 -0.719000 34.445000 0.855000 20.429241 # Oa LIG
325 60 7 -0.719000 47.492001 23.454000 20.429241 # Oa LIG
326 60 9 -0.740000 7.380000 1.347000 22.894241 # Oc LIG
327 60 9 -0.740000 20.427999 23.947001 22.894241 # Oc LIG
328 60 9 -0.740000 33.476002 1.347000 22.894241 # Oc LIG
329 60 9 -0.740000 46.522999 23.947001 22.894241 # Oc LIG
330 60 9 -0.740000 4.857000 39.480000 18.396240 # Oc LIG
331 60 9 -0.740000 17.905001 16.881001 18.396240 # Oc LIG
332 60 9 -0.740000 30.952999 39.480000 18.396240 # Oc LIG
333 60 9 -0.740000 44.000000 16.881001 18.396240 # Oc LIG
334 60 11 1.209000 5.331000 38.126999 23.863241 # Zn LIG
335 60 11 1.209000 18.378000 15.527000 23.863241 # Zn LIG
336 60 11 1.209000 31.426001 38.126999 23.863241 # Zn LIG
337 60 11 1.209000 44.473999 15.527000 23.863241 # Zn LIG
338 60 1 0.841000 5.724000 39.301998 21.282242 # Ca LIG
339 60 1 0.841000 18.771999 16.702999 21.282242 # Ca LIG
340 60 1 0.841000 31.819000 39.301998 21.282242 # Ca LIG
341 60 1 0.841000 44.867001 16.702999 21.282242 # Ca LIG
342 60 2 -0.298000 6.104000 40.375999 20.334240 # Cb LIG
343 60 2 -0.298000 19.150999 17.777000 20.334240 # Cb LIG
344 60 2 -0.298000 32.199001 40.375999 20.334240 # Cb LIG
345 60 2 -0.298000 45.247002 17.777000 20.334240 # Cb LIG
346 60 3 0.376000 5.670000 40.403999 18.972240 # Cc LIG
347 60 3 0.376000 18.718000 17.805000 18.972240 # Cc LIG
348 60 3 0.376000 31.764999 40.403999 18.972240 # Cc LIG
349 60 3 0.376000 44.813000 17.805000 18.972240 # Cc LIG
350 60 4 -0.170000 6.937000 41.394001 20.814240 # Cd LIG
351 60 4 -0.170000 19.983999 18.795000 20.814240 # Cd LIG
352 60 4 -0.170000 33.032001 41.394001 20.814240 # Cd LIG
353 60 4 -0.170000 46.080002 18.795000 20.814240 # Cd LIG
354 60 6 0.172000 7.258000 41.353001 21.852242 # H LIG
355 60 6 0.172000 20.306000 18.754000 21.852242 # H LIG
356 60 6 0.172000 33.353001 41.353001 21.852242 # H LIG
357 60 6 0.172000 46.401001 18.754000 21.852242 # H LIG
358 60 8 -0.671000 6.191000 39.299999 22.470242 # Ob LIG
359 60 8 -0.671000 19.238001 16.701000 22.470242 # Ob LIG
360 60 8 -0.671000 32.285999 39.299999 22.470242 # Ob LIG
361 60 8 -0.671000 45.334000 16.701000 22.470242 # Ob LIG
362 60 7 -0.719000 4.915000 38.395000 20.861240 # Oa LIG
363 60 7 -0.719000 17.962999 15.796000 20.861240 # Oa LIG
364 60 7 -0.719000 31.010000 38.395000 20.861240 # Oa LIG
365 60 7 -0.719000 44.057999 15.796000 20.861240 # Oa LIG
366 60 2 -0.298000 6.944000 42.487000 18.662241 # Cb LIG
367 60 2 -0.298000 19.992001 19.888000 18.662241 # Cb LIG
368 60 2 -0.298000 33.039001 42.487000 18.662241 # Cb LIG
369 60 2 -0.298000 46.087002 19.888000 18.662241 # Cb LIG
370 60 3 0.376000 7.378000 42.459000 20.024240 # Cc LIG
371 60 3 0.376000 20.424999 19.860001 20.024240 # Cc LIG
372 60 3 0.376000 33.473000 42.459000 20.024240 # Cc LIG
373 60 3 0.376000 46.521000 19.860001 20.024240 # Cc LIG
374 60 4 -0.170000 6.111000 41.469002 18.182240 # Cd LIG
375 60 4 -0.170000 19.159000 18.870001 18.182240 # Cd LIG
376 60 4 -0.170000 32.206001 41.469002 18.182240 # Cd LIG
377 60 4 -0.170000 45.254002 18.870001 18.182240 # Cd LIG
378 60 7 -0.719000 8.133000 44.469002 18.135241 # Oa LIG
379 60 7 -0.719000 21.180000 21.868999 18.135241 # Oa LIG
380 60 7 -0.719000 34.228001 44.469002 18.135241 # Oa LIG
381 60 7 -0.719000 47.276001 21.868999 18.135241 # Oa LIG
382 60 9 -0.740000 8.191000 43.382999 20.600241 # Oc LIG
383 60 9 -0.740000 21.238001 20.784000 20.600241 # Oc LIG
384 60 9 -0.740000 34.285999 43.382999 20.600241 # Oc LIG
385 60 9 -0.740000 47.334000 20.784000 20.600241 # Oc LIG
386 60 11 1.209000 7.717000 44.737000 22.015240 # Zn LIG
387 60 11 1.209000 20.764999 22.138000 22.015240 # Zn LIG
388 60 11 1.209000 33.812000 44.737000 22.015240 # Zn LIG
389 60 11 1.209000 46.860001 22.138000 22.015240 # Zn LIG
390 60 11 1.209000 9.589000 44.578999 19.721241 # Zn LIG
391 60 11 1.209000 22.636000 21.980000 19.721241 # Zn LIG
392 60 11 1.209000 35.683998 44.578999 19.721241 # Zn LIG
393 60 11 1.209000 48.731998 21.980000 19.721241 # Zn LIG
394 60 9 -0.740000 5.667000 36.318001 22.984241 # Oc LIG
395 60 9 -0.740000 18.715000 13.719000 22.984241 # Oc LIG
396 60 9 -0.740000 31.763000 36.318001 22.984241 # Oc LIG
397 60 9 -0.740000 44.810001 13.719000 22.984241 # Oc LIG
398 60 1 0.841000 7.324000 43.561001 17.714241 # Ca LIG
399 60 1 0.841000 20.371000 20.962000 17.714241 # Ca LIG
400 60 1 0.841000 33.418999 43.561001 17.714241 # Ca LIG
401 60 1 0.841000 46.466999 20.962000 17.714241 # Ca LIG
402 60 8 -0.671000 6.857000 43.563999 23.407242 # Ob LIG
403 60 8 -0.671000 19.905001 20.964001 23.407242 # Ob LIG
404 60 8 -0.671000 32.952000 43.563999 23.407242 # Ob LIG
405 60 8 -0.671000 46.000000 20.964001 23.407242 # Ob LIG
406 60 7 -0.719000 9.613000 45.073002 22.723240 # Oa LIG
407 60 7 -0.719000 22.660999 22.474001 22.723240 # Oa LIG
408 60 7 -0.719000 35.709000 45.073002 22.723240 # Oa LIG
409 60 7 -0.719000 48.756001 22.474001 22.723240 # Oa LIG
410 60 11 1.209000 3.459000 38.285000 19.275242 # Zn LIG
411 60 11 1.209000 16.507000 15.685000 19.275242 # Zn LIG
412 60 11 1.209000 29.554001 38.285000 19.275242 # Zn LIG
413 60 11 1.209000 42.602001 15.685000 19.275242 # Zn LIG
414 60 7 -0.719000 4.698000 36.810001 18.567242 # Oa LIG
415 60 7 -0.719000 17.746000 14.211000 18.567242 # Oa LIG
416 60 7 -0.719000 30.794001 36.810001 18.567242 # Oa LIG
417 60 7 -0.719000 43.841000 14.211000 18.567242 # Oa LIG
418 60 11 1.209000 4.258000 36.584999 21.569241 # Zn LIG
419 60 11 1.209000 17.306000 13.985000 21.569241 # Zn LIG
420 60 11 1.209000 30.353001 36.584999 21.569241 # Zn LIG
421 60 11 1.209000 43.401001 13.985000 21.569241 # Zn LIG
422 60 7 -0.719000 3.434000 37.790001 23.155241 # Oa LIG
423 60 7 -0.719000 16.482000 15.191000 23.155241 # Oa LIG
424 60 7 -0.719000 29.530001 37.790001 23.155241 # Oa LIG
425 60 7 -0.719000 42.577000 15.191000 23.155241 # Oa LIG
426 60 9 -0.740000 2.523000 22.131001 22.984241 # Oc LIG
427 60 9 -0.740000 15.571000 44.730999 22.984241 # Oc LIG
428 60 9 -0.740000 28.618999 22.131001 22.984241 # Oc LIG
429 60 9 -0.740000 41.666000 44.730999 22.984241 # Oc LIG
430 60 3 0.376000 1.317000 22.372999 23.559240 # Cc LIG
431 60 3 0.376000 14.364000 44.972000 23.559240 # Cc LIG
432 60 3 0.376000 27.412001 22.372999 23.559240 # Cc LIG
433 60 3 0.376000 40.459999 44.972000 23.559240 # Cc LIG
434 60 1 0.841000 10.803000 44.826000 22.302240 # Ca LIG
435 60 1 0.841000 23.851000 22.226999 22.302240 # Ca LIG
436 60 1 0.841000 36.898998 44.826000 22.302240 # Ca LIG
437 60 1 0.841000 49.945999 22.226999 22.302240 # Ca LIG
438 60 2 -0.298000 11.923000 45.034000 23.250240 # Cb LIG
439 60 2 -0.298000 24.971001 22.434999 23.250240 # Cb LIG
440 60 2 -0.298000 38.019001 45.034000 23.250240 # Cb LIG
441 60 2 -0.298000 51.066002 22.434999 23.250240 # Cb LIG
442 60 4 -0.170000 0.174000 22.223000 22.770241 # Cd LIG
443 60 4 -0.170000 13.222000 44.821999 22.770241 # Cd LIG
444 60 4 -0.170000 26.268999 22.223000 22.770241 # Cd LIG
445 60 4 -0.170000 39.317001 44.821999 22.770241 # Cd LIG
446 60 6 0.172000 0.299000 21.924000 21.732241 # H LIG
447 60 6 0.172000 13.346000 44.522999 21.732241 # H LIG
448 60 6 0.172000 26.393999 21.924000 21.732241 # H LIG
449 60 6 0.172000 39.442001 44.522999 21.732241 # H LIG
450 60 8 -0.671000 11.035000 44.421001 21.113241 # Ob LIG
451 60 8 -0.671000 24.083000 21.822001 21.113241 # Ob LIG
452 60 8 -0.671000 37.130001 44.421001 21.113241 # Ob LIG
453 60 8 -0.671000 50.178001 21.822001 21.113241 # Ob LIG
454 60 3 0.376000 6.061000 35.152000 23.559240 # Cc LIG
455 60 3 0.376000 19.108999 12.553000 23.559240 # Cc LIG
456 60 3 0.376000 32.155998 35.152000 23.559240 # Cc LIG
457 60 3 0.376000 45.203999 12.553000 23.559240 # Cc LIG
458 60 1 0.841000 7.968000 32.140999 22.302240 # Ca LIG
459 60 1 0.841000 21.016001 9.542000 22.302240 # Ca LIG
460 60 1 0.841000 34.063999 32.140999 22.302240 # Ca LIG
461 60 1 0.841000 47.111000 9.542000 22.302240 # Ca LIG
462 60 2 -0.298000 7.228000 33.007000 23.250240 # Cb LIG
463 60 2 -0.298000 20.275999 10.408000 23.250240 # Cb LIG
464 60 2 -0.298000 33.323002 33.007000 23.250240 # Cb LIG
465 60 2 -0.298000 46.370998 10.408000 23.250240 # Cb LIG
466 60 4 -0.170000 6.763000 34.237000 22.770241 # Cd LIG
467 60 4 -0.170000 19.809999 11.638000 22.770241 # Cd LIG
468 60 4 -0.170000 32.858002 34.237000 22.770241 # Cd LIG
469 60 4 -0.170000 45.905998 11.638000 22.770241 # Cd LIG
470 60 6 0.172000 6.959000 34.494999 21.732241 # H LIG
471 60 6 0.172000 20.007000 11.896000 21.732241 # H LIG
472 60 6 0.172000 33.055000 34.494999 21.732241 # H LIG
473 60 6 0.172000 46.102001 11.896000 21.732241 # H LIG
474 60 8 -0.671000 8.203000 32.543999 21.113241 # Ob LIG
475 60 8 -0.671000 21.250999 9.945000 21.113241 # Ob LIG
476 60 8 -0.671000 34.299000 32.543999 21.113241 # Ob LIG
477 60 8 -0.671000 47.346001 9.945000 21.113241 # Ob LIG
478 60 9 -0.740000 10.524000 30.600000 20.600241 # Oc LIG
479 60 9 -0.740000 23.572001 8.001000 20.600241 # Oc LIG
480 60 9 -0.740000 36.619999 30.600000 20.600241 # Oc LIG
481 60 9 -0.740000 49.667000 8.001000 20.600241 # Oc LIG
482 60 1 0.841000 5.079000 35.655998 18.988241 # Ca LIG
483 60 1 0.841000 18.127001 13.057000 18.988241 # Ca LIG
484 60 1 0.841000 31.174999 35.655998 18.988241 # Ca LIG
485 60 1 0.841000 44.222000 13.057000 18.988241 # Ca LIG
486 60 2 -0.298000 5.820000 34.790001 18.040241 # Cb LIG
487 60 2 -0.298000 18.867001 12.191000 18.040241 # Cb LIG
488 60 2 -0.298000 31.915001 34.790001 18.040241 # Cb LIG
489 60 2 -0.298000 44.963001 12.191000 18.040241 # Cb LIG
490 60 4 -0.170000 6.285000 33.560001 18.520241 # Cd LIG
491 60 4 -0.170000 19.333000 10.961000 18.520241 # Cd LIG
492 60 4 -0.170000 32.380001 33.560001 18.520241 # Cd LIG
493 60 4 -0.170000 45.428001 10.961000 18.520241 # Cd LIG
494 60 6 0.172000 6.088000 33.301998 19.558241 # H LIG
495 60 6 0.172000 19.136000 10.703000 19.558241 # H LIG
496 60 6 0.172000 32.183998 33.301998 19.558241 # H LIG
497 60 6 0.172000 45.230999 10.703000 19.558241 # H LIG
498 60 8 -0.671000 4.844000 35.252998 20.176241 # Ob LIG
499 60 8 -0.671000 17.892000 12.654000 20.176241 # Ob LIG
500 60 8 -0.671000 30.940001 35.252998 20.176241 # Ob LIG
501 60 8 -0.671000 43.987000 12.654000 20.176241 # Ob LIG
502 60 9 -0.740000 2.523000 37.198002 20.690241 # Oc LIG
503 60 9 -0.740000 15.571000 14.598000 20.690241 # Oc LIG
504 60 9 -0.740000 28.618999 37.198002 20.690241 # Oc LIG
505 60 9 -0.740000 41.666000 14.598000 20.690241 # Oc LIG
506 60 8 -0.671000 2.013000 38.443001 17.882240 # Ob LIG
507 60 8 -0.671000 15.060000 15.843000 17.882240 # Ob LIG
508 60 8 -0.671000 28.108000 38.443001 17.882240 # Ob LIG
509 60 8 -0.671000 41.155998 15.843000 17.882240 # Ob LIG
510 60 1 0.841000 2.244000 38.036999 23.576241 # Ca LIG
511 60 1 0.841000 15.292000 15.438000 23.576241 # Ca LIG
512 60 1 0.841000 28.340000 38.036999 23.576241 # Ca LIG
513 60 1 0.841000 41.387001 15.438000 23.576241 # Ca LIG
514 60 2 -0.298000 1.124000 37.828999 22.628241 # Cb LIG
515 60 2 -0.298000 14.172000 15.230000 22.628241 # Cb LIG
516 60 2 -0.298000 27.219999 37.828999 22.628241 # Cb LIG
517 60 2 -0.298000 40.266998 15.230000 22.628241 # Cb LIG
518 60 3 0.376000 1.317000 37.438999 21.265240 # Cc LIG
519 60 3 0.376000 14.364000 14.840000 21.265240 # Cc LIG
520 60 3 0.376000 27.412001 37.438999 21.265240 # Cc LIG
521 60 3 0.376000 40.459999 14.840000 21.265240 # Cc LIG