LAMMPS data file. CGCMM style. atom_style full generated by VMD/TopoTools v1.5 on Tue May 02 12:05:25 PDT 2017
 1477 atoms
 0 bonds
 0 angles
 0 dihedrals
 0 impropers
 10 atom types
 0 bond types
 0 angle types
 0 dihedral types
 0 improper types
 0.444700 26.558700  xlo xhi
 0.314250 45.544250  ylo yhi
 -0.000000 27.667000  zlo zhi

# Pair Coeffs
#
# 1  CH4
# 2  Ca
# 3  Cb
# 4  Cc
# 5  Cd
# 6  H
# 7  Mg
# 8  Oa
# 9  Ob
# 10  Oc

 Masses

 1 16.040001 # CH4
 2 12.011000 # Ca
 3 12.011000 # Cb
 4 12.011000 # Cc
 5 12.011000 # Cd
 6 1.008000 # H
 7 24.305000 # Mg
 8 15.999000 # Oa
 9 15.999000 # Ob
 10 15.999000 # Oc

 Atoms

1 1 1 0.000000 26.114401 45.230499 14.134000 # CH4 
2 2 1 0.000000 26.114401 45.230499 14.736000 # CH4 
3 3 1 0.000000 26.114401 45.230499 15.337000 # CH4 
4 4 1 0.000000 26.114401 45.230499 15.939000 # CH4 
5 5 1 0.000000 26.114401 45.230499 16.540001 # CH4 
6 6 1 0.000000 26.114401 45.230499 17.142000 # CH4 
7 7 1 0.000000 26.114401 45.230499 17.743000 # CH4 
8 8 1 0.000000 26.114401 45.230499 18.344000 # CH4 
9 9 1 0.000000 26.114401 45.230499 18.945999 # CH4 
10 10 1 0.000000 26.114401 45.230499 19.547001 # CH4 
11 11 1 0.000000 26.114401 45.230499 20.149000 # CH4 
12 12 1 0.000000 26.114401 45.230499 20.750000 # CH4 
13 13 1 0.000000 26.114401 45.230499 21.351999 # CH4 
14 14 1 0.000000 26.114401 45.230499 21.952999 # CH4 
15 15 1 0.000000 26.114401 45.230499 22.555000 # CH4 
16 16 1 0.000000 26.114401 45.230499 23.156000 # CH4 
17 17 1 0.000000 26.114401 45.230499 23.757999 # CH4 
18 18 1 0.000000 26.114401 45.230499 24.358999 # CH4 
19 19 1 0.000000 26.114401 45.230499 24.959999 # CH4 
20 20 1 0.000000 26.114401 45.230499 25.562000 # CH4 
21 21 1 0.000000 26.114401 45.230499 26.163000 # CH4 
22 22 1 0.000000 26.114401 45.230499 26.764999 # CH4 
23 23 1 0.000000 26.114401 45.230499 27.365999 # CH4 
24 24 1 0.000000 26.114401 45.230499 0.301000 # CH4 
25 25 1 0.000000 26.114401 45.230499 0.902000 # CH4 
26 26 1 0.000000 26.114401 45.230499 1.504000 # CH4 
27 27 1 0.000000 26.114401 45.230499 2.105000 # CH4 
28 28 1 0.000000 26.114401 45.230499 2.707000 # CH4 
29 29 1 0.000000 26.114401 45.230499 3.308000 # CH4 
30 30 1 0.000000 26.114401 45.230499 3.909000 # CH4 
31 31 1 0.000000 26.114401 45.230499 4.511000 # CH4 
32 32 1 0.000000 26.114401 45.230499 5.112000 # CH4 
33 33 1 0.000000 26.114401 45.230499 5.714000 # CH4 
34 34 1 0.000000 26.114401 45.230499 6.315000 # CH4 
35 35 1 0.000000 26.114401 45.230499 6.917000 # CH4 
36 36 1 0.000000 26.114401 45.230499 7.518000 # CH4 
37 37 1 0.000000 26.114401 45.230499 8.120000 # CH4 
38 38 1 0.000000 26.114401 45.230499 8.721000 # CH4 
39 39 1 0.000000 26.114401 45.230499 9.323000 # CH4 
40 40 1 0.000000 26.114401 45.230499 9.924000 # CH4 
41 41 1 0.000000 26.114401 45.230499 10.525000 # CH4 
42 42 1 0.000000 26.114401 45.230499 11.127000 # CH4 
43 43 1 0.000000 26.114401 45.230499 11.728000 # CH4 
44 44 1 0.000000 26.114401 45.230499 12.330000 # CH4 
45 45 1 0.000000 26.114401 45.230499 12.931000 # CH4 
46 46 1 0.000000 26.114401 45.230499 13.533000 # CH4 
47 47 1 0.000000 26.114401 22.614500 14.134000 # CH4 
48 48 1 0.000000 26.114401 22.614500 14.736000 # CH4 
49 49 1 0.000000 26.114401 22.614500 15.337000 # CH4 
50 50 1 0.000000 26.114401 22.614500 15.939000 # CH4 
51 51 1 0.000000 26.114401 22.614500 16.540001 # CH4 
52 52 1 0.000000 26.114401 22.614500 17.142000 # CH4 
53 53 1 0.000000 26.114401 22.614500 17.743000 # CH4 
54 54 1 0.000000 26.114401 22.614500 18.344000 # CH4 
55 55 1 0.000000 26.114401 22.614500 18.945999 # CH4 
56 56 1 0.000000 26.114401 22.614500 19.547001 # CH4 
57 57 1 0.000000 26.114401 22.614500 20.149000 # CH4 
58 58 1 0.000000 26.114401 22.614500 20.750000 # CH4 
59 59 1 0.000000 26.114401 22.614500 21.351999 # CH4 
60 60 1 0.000000 26.114401 22.614500 21.952999 # CH4 
61 61 1 0.000000 26.114401 22.614500 22.555000 # CH4 
62 62 1 0.000000 26.114401 22.614500 23.156000 # CH4 
63 63 1 0.000000 26.114401 22.614500 23.757999 # CH4 
64 64 1 0.000000 26.114401 22.614500 24.358999 # CH4 
65 65 1 0.000000 26.114401 22.614500 24.959999 # CH4 
66 66 1 0.000000 26.114401 22.614500 25.562000 # CH4 
67 67 1 0.000000 26.114401 22.614500 26.163000 # CH4 
68 68 1 0.000000 26.114401 22.614500 26.764999 # CH4 
69 69 1 0.000000 26.114401 22.614500 27.365999 # CH4 
70 70 1 0.000000 26.114401 22.614500 0.301000 # CH4 
71 71 1 0.000000 26.114401 22.614500 0.902000 # CH4 
72 72 1 0.000000 26.114401 22.614500 1.504000 # CH4 
73 73 1 0.000000 26.114401 22.614500 2.105000 # CH4 
74 74 1 0.000000 26.114401 22.614500 2.707000 # CH4 
75 75 1 0.000000 26.114401 22.614500 3.308000 # CH4 
76 76 1 0.000000 26.114401 22.614500 3.909000 # CH4 
77 77 1 0.000000 26.114401 22.614500 4.511000 # CH4 
78 78 1 0.000000 26.114401 22.614500 5.112000 # CH4 
79 79 1 0.000000 26.114401 22.614500 5.714000 # CH4 
80 80 1 0.000000 26.114401 22.614500 6.315000 # CH4 
81 81 1 0.000000 26.114401 22.614500 6.917000 # CH4 
82 82 1 0.000000 26.114401 22.614500 7.518000 # CH4 
83 83 1 0.000000 26.114401 22.614500 8.120000 # CH4 
84 84 1 0.000000 26.114401 22.614500 8.721000 # CH4 
85 85 1 0.000000 26.114401 22.614500 9.323000 # CH4 
86 86 1 0.000000 26.114401 22.614500 9.924000 # CH4 
87 87 1 0.000000 26.114401 22.614500 10.525000 # CH4 
88 88 1 0.000000 26.114401 22.614500 11.127000 # CH4 
89 89 1 0.000000 26.114401 22.614500 11.728000 # CH4 
90 90 1 0.000000 26.114401 22.614500 12.330000 # CH4 
91 91 1 0.000000 26.114401 22.614500 12.931000 # CH4 
92 92 1 0.000000 26.114401 22.614500 13.533000 # CH4 
93 93 1 0.000000 13.056400 45.230499 14.134000 # CH4 
94 94 1 0.000000 13.056400 45.230499 14.736000 # CH4 
95 95 1 0.000000 13.056400 45.230499 15.337000 # CH4 
96 96 1 0.000000 13.056400 45.230499 15.939000 # CH4 
97 97 1 0.000000 13.056400 45.230499 16.540001 # CH4 
98 98 1 0.000000 13.056400 45.230499 17.142000 # CH4 
99 99 1 0.000000 13.056400 45.230499 17.743000 # CH4 
100 100 1 0.000000 13.056400 45.230499 18.344000 # CH4 
101 101 1 0.000000 13.056400 45.230499 18.945999 # CH4 
102 102 1 0.000000 13.056400 45.230499 19.547001 # CH4 
103 103 1 0.000000 13.056400 45.230499 20.149000 # CH4 
104 104 1 0.000000 13.056400 45.230499 20.750000 # CH4 
105 105 1 0.000000 13.056400 45.230499 21.351999 # CH4 
106 106 1 0.000000 13.056400 45.230499 21.952999 # CH4 
107 107 1 0.000000 13.056400 45.230499 22.555000 # CH4 
108 108 1 0.000000 13.056400 45.230499 23.156000 # CH4 
109 109 1 0.000000 13.056400 45.230499 23.757999 # CH4 
110 110 1 0.000000 13.056400 45.230499 24.358999 # CH4 
111 111 1 0.000000 13.056400 45.230499 24.959999 # CH4 
112 112 1 0.000000 13.056400 45.230499 25.562000 # CH4 
113 113 1 0.000000 13.056400 45.230499 26.163000 # CH4 
114 114 1 0.000000 13.056400 45.230499 26.764999 # CH4 
115 115 1 0.000000 13.056400 45.230499 27.365999 # CH4 
116 116 1 0.000000 13.056400 45.230499 0.301000 # CH4 
117 117 1 0.000000 13.056400 45.230499 0.902000 # CH4 
118 118 1 0.000000 13.056400 45.230499 1.504000 # CH4 
119 119 1 0.000000 13.056400 45.230499 2.105000 # CH4 
120 120 1 0.000000 13.056400 45.230499 2.707000 # CH4 
121 121 1 0.000000 13.056400 45.230499 3.308000 # CH4 
122 122 1 0.000000 13.056400 45.230499 3.909000 # CH4 
123 123 1 0.000000 13.056400 45.230499 4.511000 # CH4 
124 124 1 0.000000 13.056400 45.230499 5.112000 # CH4 
125 125 1 0.000000 13.056400 45.230499 5.714000 # CH4 
126 126 1 0.000000 13.056400 45.230499 6.315000 # CH4 
127 127 1 0.000000 13.056400 45.230499 6.917000 # CH4 
128 128 1 0.000000 13.056400 45.230499 7.518000 # CH4 
129 129 1 0.000000 13.056400 45.230499 8.120000 # CH4 
130 130 1 0.000000 13.056400 45.230499 8.721000 # CH4 
131 131 1 0.000000 13.056400 45.230499 9.323000 # CH4 
132 132 1 0.000000 13.056400 45.230499 9.924000 # CH4 
133 133 1 0.000000 13.056400 45.230499 10.525000 # CH4 
134 134 1 0.000000 13.056400 45.230499 11.127000 # CH4 
135 135 1 0.000000 13.056400 45.230499 11.728000 # CH4 
136 136 1 0.000000 13.056400 45.230499 12.330000 # CH4 
137 137 1 0.000000 13.056400 45.230499 12.931000 # CH4 
138 138 1 0.000000 13.056400 45.230499 13.533000 # CH4 
139 139 1 0.000000 13.056400 22.614500 14.134000 # CH4 
140 140 1 0.000000 13.056400 22.614500 14.736000 # CH4 
141 141 1 0.000000 13.056400 22.614500 15.337000 # CH4 
142 142 1 0.000000 13.056400 22.614500 15.939000 # CH4 
143 143 1 0.000000 13.056400 22.614500 16.540001 # CH4 
144 144 1 0.000000 13.056400 22.614500 17.142000 # CH4 
145 145 1 0.000000 13.056400 22.614500 17.743000 # CH4 
146 146 1 0.000000 13.056400 22.614500 18.344000 # CH4 
147 147 1 0.000000 13.056400 22.614500 18.945999 # CH4 
148 148 1 0.000000 13.056400 22.614500 19.547001 # CH4 
149 149 1 0.000000 13.056400 22.614500 20.149000 # CH4 
150 150 1 0.000000 13.056400 22.614500 20.750000 # CH4 
151 151 1 0.000000 13.056400 22.614500 21.351999 # CH4 
152 152 1 0.000000 13.056400 22.614500 21.952999 # CH4 
153 153 1 0.000000 13.056400 22.614500 22.555000 # CH4 
154 154 1 0.000000 13.056400 22.614500 23.156000 # CH4 
155 155 1 0.000000 13.056400 22.614500 23.757999 # CH4 
156 156 1 0.000000 13.056400 22.614500 24.358999 # CH4 
157 157 1 0.000000 13.056400 22.614500 24.959999 # CH4 
158 158 1 0.000000 13.056400 22.614500 25.562000 # CH4 
159 159 1 0.000000 13.056400 22.614500 26.163000 # CH4 
160 160 1 0.000000 13.056400 22.614500 26.764999 # CH4 
161 161 1 0.000000 13.056400 22.614500 27.365999 # CH4 
162 162 1 0.000000 13.056400 22.614500 0.301000 # CH4 
163 163 1 0.000000 13.056400 22.614500 0.902000 # CH4 
164 164 1 0.000000 13.056400 22.614500 1.504000 # CH4 
165 165 1 0.000000 13.056400 22.614500 2.105000 # CH4 
166 166 1 0.000000 13.056400 22.614500 2.707000 # CH4 
167 167 1 0.000000 13.056400 22.614500 3.308000 # CH4 
168 168 1 0.000000 13.056400 22.614500 3.909000 # CH4 
169 169 1 0.000000 13.056400 22.614500 4.511000 # CH4 
170 170 1 0.000000 13.056400 22.614500 5.112000 # CH4 
171 171 1 0.000000 13.056400 22.614500 5.714000 # CH4 
172 172 1 0.000000 13.056400 22.614500 6.315000 # CH4 
173 173 1 0.000000 13.056400 22.614500 6.917000 # CH4 
174 174 1 0.000000 13.056400 22.614500 7.518000 # CH4 
175 175 1 0.000000 13.056400 22.614500 8.120000 # CH4 
176 176 1 0.000000 13.056400 22.614500 8.721000 # CH4 
177 177 1 0.000000 13.056400 22.614500 9.323000 # CH4 
178 178 1 0.000000 13.056400 22.614500 9.924000 # CH4 
179 179 1 0.000000 13.056400 22.614500 10.525000 # CH4 
180 180 1 0.000000 13.056400 22.614500 11.127000 # CH4 
181 181 1 0.000000 13.056400 22.614500 11.728000 # CH4 
182 182 7 0.000000 5.314000 7.966000 21.684460 # Mg LIG
183 182 7 0.000000 18.371000 30.580999 21.684460 # Mg LIG
184 182 7 0.000000 4.242000 6.491000 19.378460 # Mg LIG
185 182 7 0.000000 17.299000 29.106001 19.378460 # Mg LIG
186 182 7 0.000000 3.501000 8.158000 23.990459 # Mg LIG
187 182 7 0.000000 16.558001 30.773001 23.990459 # Mg LIG
188 182 7 0.000000 7.743000 14.649000 19.815460 # Mg LIG
189 182 7 0.000000 20.799000 37.264000 19.815460 # Mg LIG
190 182 7 0.000000 8.815000 16.124001 22.120461 # Mg LIG
191 182 7 0.000000 21.872000 38.738998 22.120461 # Mg LIG
192 182 7 0.000000 9.556000 14.457000 17.509460 # Mg LIG
193 182 7 0.000000 22.613001 37.071999 17.509460 # Mg LIG
194 182 7 0.000000 8.815000 31.200001 19.815460 # Mg LIG
195 182 7 0.000000 21.872000 8.585000 19.815460 # Mg LIG
196 182 7 0.000000 9.556000 29.534000 22.120461 # Mg LIG
197 182 7 0.000000 22.613001 6.919000 22.120461 # Mg LIG
198 182 7 0.000000 4.242000 21.568001 23.990459 # Mg LIG
199 182 7 0.000000 17.299000 44.182999 23.990459 # Mg LIG
200 182 7 0.000000 8.815000 1.047000 17.509460 # Mg LIG
201 182 7 0.000000 21.872000 23.662001 17.509460 # Mg LIG
202 182 7 0.000000 5.314000 38.118999 23.990459 # Mg LIG
203 182 7 0.000000 18.371000 15.504000 23.990459 # Mg LIG
204 182 7 0.000000 7.743000 44.801998 22.120461 # Mg LIG
205 182 7 0.000000 20.799000 22.187000 22.120461 # Mg LIG
206 182 7 0.000000 9.556000 44.611000 19.815460 # Mg LIG
207 182 7 0.000000 22.613001 21.996000 19.815460 # Mg LIG
208 182 7 0.000000 3.501000 38.311001 19.378460 # Mg LIG
209 182 7 0.000000 16.558001 15.696000 19.378460 # Mg LIG
210 182 7 0.000000 4.242000 36.645000 21.684460 # Mg LIG
211 182 7 0.000000 17.299000 14.030000 21.684460 # Mg LIG
212 182 7 0.000000 5.314000 23.042999 19.378460 # Mg LIG
213 182 7 0.000000 18.371000 0.428000 19.378460 # Mg LIG
214 182 7 0.000000 3.501000 23.233999 21.684460 # Mg LIG
215 182 7 0.000000 16.558001 0.619000 21.684460 # Mg LIG
216 182 7 0.000000 7.743000 29.726000 17.509460 # Mg LIG
217 182 7 0.000000 20.799000 7.111000 17.509460 # Mg LIG
218 182 2 0.000000 5.704000 9.170000 19.055460 # Ca LIG
219 182 2 0.000000 18.761000 31.785000 19.055460 # Ca LIG
220 182 3 0.000000 6.098000 10.247000 18.115459 # Cb LIG
221 182 3 0.000000 19.155001 32.862000 18.115459 # Cb LIG
222 182 5 0.000000 6.932000 11.258000 18.610460 # Cd LIG
223 182 5 0.000000 19.989000 33.873001 18.610460 # Cd LIG
224 182 6 0.000000 7.248000 11.206000 19.650459 # H LIG
225 182 6 0.000000 20.305000 33.820999 19.650459 # H LIG
226 182 9 0.000000 6.149000 9.140000 20.245461 # Ob LIG
227 182 9 0.000000 19.205999 31.754999 20.245461 # Ob LIG
228 182 8 0.000000 4.881000 8.269000 18.627460 # Oa LIG
229 182 8 0.000000 17.938000 30.884001 18.627460 # Oa LIG
230 182 10 0.000000 8.183000 13.257000 18.410460 # Oc LIG
231 182 10 0.000000 21.240000 35.872002 18.410460 # Oc LIG
232 182 8 0.000000 4.721000 6.715000 23.238461 # Oa LIG
233 182 8 0.000000 17.777000 29.330000 23.238461 # Oa LIG
234 182 8 0.000000 3.455000 7.631000 20.933460 # Oa LIG
235 182 8 0.000000 16.511000 30.246000 20.933460 # Oa LIG
236 182 10 0.000000 4.874000 9.358000 23.088459 # Oc LIG
237 182 10 0.000000 17.930000 31.973000 23.088459 # Oc LIG
238 182 10 0.000000 5.668000 6.177000 20.783461 # Oc LIG
239 182 10 0.000000 18.725000 28.792000 20.783461 # Oc LIG
240 182 4 0.000000 5.672000 10.284000 23.664459 # Cc LIG
241 182 4 0.000000 18.729000 32.898998 23.664459 # Cc LIG
242 182 2 0.000000 7.353000 13.445000 22.444460 # Ca LIG
243 182 2 0.000000 20.409000 36.060001 22.444460 # Ca LIG
244 182 3 0.000000 6.959000 12.368000 23.384460 # Cb LIG
245 182 3 0.000000 20.016001 34.983002 23.384460 # Cb LIG
246 182 4 0.000000 7.384000 12.331000 17.835461 # Cc LIG
247 182 4 0.000000 20.441000 34.945999 17.835461 # Cc LIG
248 182 5 0.000000 6.125000 11.357000 22.889460 # Cd LIG
249 182 5 0.000000 19.181000 33.972000 22.889460 # Cd LIG
250 182 6 0.000000 5.809000 11.409000 21.849461 # H LIG
251 182 6 0.000000 18.865999 34.023998 21.849461 # H LIG
252 182 9 0.000000 6.908000 13.475000 21.254459 # Ob LIG
253 182 9 0.000000 19.965000 36.090000 21.254459 # Ob LIG
254 182 8 0.000000 8.175000 14.346000 22.871460 # Oa LIG
255 182 8 0.000000 21.232000 36.960999 22.871460 # Oa LIG
256 182 8 0.000000 8.336000 15.900000 18.260460 # Oa LIG
257 182 8 0.000000 21.393000 38.514999 18.260460 # Oa LIG
258 182 8 0.000000 9.602000 14.984000 20.566460 # Oa LIG
259 182 8 0.000000 22.659000 37.598999 20.566460 # Oa LIG
260 182 10 0.000000 7.389000 16.438000 20.716461 # Oc LIG
261 182 10 0.000000 20.445999 39.053001 20.716461 # Oc LIG
262 182 8 0.000000 9.602000 30.059999 18.260460 # Oa LIG
263 182 8 0.000000 22.659000 7.445000 18.260460 # Oa LIG
264 182 8 0.000000 8.336000 30.976999 22.871460 # Oa LIG
265 182 8 0.000000 21.393000 8.362000 22.871460 # Oa LIG
266 182 8 0.000000 4.721000 21.791000 20.933460 # Oa LIG
267 182 8 0.000000 17.777000 44.405998 20.933460 # Oa LIG
268 182 10 0.000000 5.668000 21.254000 18.477459 # Oc LIG
269 182 10 0.000000 18.725000 43.868999 18.477459 # Oc LIG
270 182 8 0.000000 8.336000 0.824000 20.566460 # Oa LIG
271 182 8 0.000000 21.393000 23.438999 20.566460 # Oa LIG
272 182 10 0.000000 7.389000 1.361000 23.021460 # Oc LIG
273 182 10 0.000000 20.445999 23.976000 23.021460 # Oc LIG
274 182 10 0.000000 4.874000 39.512001 18.477459 # Oc LIG
275 182 10 0.000000 17.930000 16.896999 18.477459 # Oc LIG
276 182 2 0.000000 5.704000 39.324001 21.360460 # Ca LIG
277 182 2 0.000000 18.761000 16.709000 21.360460 # Ca LIG
278 182 3 0.000000 6.098000 40.401001 20.421459 # Cb LIG
279 182 3 0.000000 19.155001 17.785999 20.421459 # Cb LIG
280 182 4 0.000000 5.672000 40.438000 19.053459 # Cc LIG
281 182 4 0.000000 18.729000 17.823000 19.053459 # Cc LIG
282 182 5 0.000000 6.932000 41.410999 20.916460 # Cd LIG
283 182 5 0.000000 19.989000 18.796000 20.916460 # Cd LIG
284 182 6 0.000000 7.248000 41.359001 21.955460 # H LIG
285 182 6 0.000000 20.305000 18.743999 21.955460 # H LIG
286 182 9 0.000000 6.149000 39.292999 22.550461 # Ob LIG
287 182 9 0.000000 19.205999 16.677999 22.550461 # Ob LIG
288 182 8 0.000000 4.882000 38.423000 20.933460 # Oa LIG
289 182 8 0.000000 17.938000 15.808000 20.933460 # Oa LIG
290 182 3 0.000000 6.959000 42.521000 18.773460 # Cb LIG
291 182 3 0.000000 20.016001 19.906000 18.773460 # Cb LIG
292 182 4 0.000000 7.384000 42.484001 20.140461 # Cc LIG
293 182 4 0.000000 20.441000 19.868999 20.140461 # Cc LIG
294 182 5 0.000000 6.125000 41.509998 18.277460 # Cd LIG
295 182 5 0.000000 19.181000 18.895000 18.277460 # Cd LIG
296 182 8 0.000000 8.175000 44.499001 18.260460 # Oa LIG
297 182 8 0.000000 21.232000 21.884001 18.260460 # Oa LIG
298 182 10 0.000000 8.183000 43.410000 20.716461 # Oc LIG
299 182 10 0.000000 21.240000 20.795000 20.716461 # Oc LIG
300 182 10 0.000000 5.668000 36.330002 23.088459 # Oc LIG
301 182 10 0.000000 18.725000 13.715000 23.088459 # Oc LIG
302 182 2 0.000000 7.353000 43.598000 17.833460 # Ca LIG
303 182 2 0.000000 20.409000 20.983000 17.833460 # Ca LIG
304 182 9 0.000000 6.908000 43.627998 23.559460 # Ob LIG
305 182 9 0.000000 19.965000 21.013000 23.559460 # Ob LIG
306 182 8 0.000000 9.602000 45.137001 22.871460 # Oa LIG
307 182 8 0.000000 22.659000 22.521999 22.871460 # Oa LIG
308 182 8 0.000000 4.721000 36.868000 18.627460 # Oa LIG
309 182 8 0.000000 17.778000 14.253000 18.627460 # Oa LIG
310 182 8 0.000000 3.455000 37.785000 23.238461 # Oa LIG
311 182 8 0.000000 16.511000 15.170000 23.238461 # Oa LIG
312 182 10 0.000000 2.515000 22.156000 23.088459 # Oc LIG
313 182 10 0.000000 15.572000 44.771000 23.088459 # Oc LIG
314 182 4 0.000000 1.314000 22.385000 23.664459 # Cc LIG
315 182 4 0.000000 14.371000 45.000000 23.664459 # Cc LIG
316 182 2 0.000000 10.794000 44.875000 22.444460 # Ca LIG
317 182 2 0.000000 23.851000 22.260000 22.444460 # Ca LIG
318 182 3 0.000000 11.924000 45.073002 23.384460 # Cb LIG
319 182 3 0.000000 24.980000 22.458000 23.384460 # Cb LIG
320 182 5 0.000000 0.159000 22.240999 22.889460 # Cd LIG
321 182 5 0.000000 13.216000 44.855999 22.889460 # Cd LIG
322 182 6 0.000000 0.271000 21.941000 21.849461 # H LIG
323 182 6 0.000000 13.328000 44.556000 21.849461 # H LIG
324 182 9 0.000000 10.990000 44.474998 21.254459 # Ob LIG
325 182 9 0.000000 24.047001 21.860001 21.254459 # Ob LIG
326 182 4 0.000000 6.070000 35.174999 23.664459 # Cc LIG
327 182 4 0.000000 19.127001 12.560000 23.664459 # Cc LIG
328 182 2 0.000000 7.967000 32.139999 22.444460 # Ca LIG
329 182 2 0.000000 21.024000 9.525000 22.444460 # Ca LIG
330 182 3 0.000000 7.231000 33.020000 23.384460 # Cb LIG
331 182 3 0.000000 20.288000 10.405000 23.384460 # Cb LIG
332 182 5 0.000000 6.773000 34.248001 22.889460 # Cd LIG
333 182 5 0.000000 19.830000 11.633000 22.889460 # Cd LIG
334 182 6 0.000000 6.977000 34.494999 21.849461 # H LIG
335 182 6 0.000000 20.033001 11.880000 21.849461 # H LIG
336 182 9 0.000000 8.216000 32.509998 21.254459 # Ob LIG
337 182 9 0.000000 21.273001 9.895000 21.254459 # Ob LIG
338 182 10 0.000000 10.541000 30.612000 20.716461 # Oc LIG
339 182 10 0.000000 23.598000 7.997000 20.716461 # Oc LIG
340 182 2 0.000000 5.090000 35.705002 19.055460 # Ca LIG
341 182 2 0.000000 18.146000 13.090000 19.055460 # Ca LIG
342 182 3 0.000000 5.826000 34.825001 18.115459 # Cb LIG
343 182 3 0.000000 18.882000 12.210000 18.115459 # Cb LIG
344 182 5 0.000000 6.284000 33.597000 18.610460 # Cd LIG
345 182 5 0.000000 19.341000 10.982000 18.610460 # Cd LIG
346 182 6 0.000000 6.080000 33.349998 19.650459 # H LIG
347 182 6 0.000000 19.136999 10.735000 19.650459 # H LIG
348 182 9 0.000000 4.841000 35.334999 20.245461 # Ob LIG
349 182 9 0.000000 17.898001 12.720000 20.245461 # Ob LIG
350 182 10 0.000000 2.515000 37.233002 20.783461 # Oc LIG
351 182 10 0.000000 15.572000 14.618000 20.783461 # Oc LIG
352 182 9 0.000000 2.067000 38.446999 17.939461 # Ob LIG
353 182 9 0.000000 15.124000 15.832000 17.939461 # Ob LIG
354 182 2 0.000000 2.263000 38.046001 23.666460 # Ca LIG
355 182 2 0.000000 15.320000 15.431000 23.666460 # Ca LIG
356 182 3 0.000000 1.133000 37.848999 22.726460 # Cb LIG
357 182 3 0.000000 14.190000 15.234000 22.726460 # Cb LIG
358 182 4 0.000000 1.314000 37.462002 21.358459 # Cc LIG
359 182 4 0.000000 14.371000 14.847000 21.358459 # Cc LIG
360 182 5 0.000000 12.898000 15.451000 23.221460 # Cd LIG
361 182 5 0.000000 25.954000 38.066002 23.221460 # Cd LIG
362 182 6 0.000000 12.785000 15.751000 17.344460 # H LIG
363 182 6 0.000000 25.841999 38.366001 17.344460 # H LIG
364 182 2 0.000000 10.794000 14.722000 20.138460 # Ca LIG
365 182 2 0.000000 23.851000 37.337002 20.138460 # Ca LIG
366 182 3 0.000000 11.924000 14.919000 21.078461 # Cb LIG
367 182 3 0.000000 24.980000 37.534000 21.078461 # Cb LIG
368 182 4 0.000000 11.743000 15.306000 22.446461 # Cc LIG
369 182 4 0.000000 24.799000 37.921001 22.446461 # Cc LIG
370 182 5 0.000000 0.159000 37.317001 20.583460 # Cd LIG
371 182 5 0.000000 13.216000 14.702000 20.583460 # Cd LIG
372 182 6 0.000000 0.272000 37.016998 19.543461 # H LIG
373 182 6 0.000000 13.328000 14.402000 19.543461 # H LIG
374 182 9 0.000000 10.990000 14.322000 18.948460 # Ob LIG
375 182 9 0.000000 24.047001 36.937000 18.948460 # Ob LIG
376 182 10 0.000000 10.541000 15.535000 23.021460 # Oc LIG
377 182 10 0.000000 23.598000 38.150002 23.021460 # Oc LIG
378 182 9 0.000000 4.841000 5.182000 17.939461 # Ob LIG
379 182 9 0.000000 17.898001 27.797001 17.939461 # Ob LIG
380 182 10 0.000000 2.515000 7.080000 18.477459 # Oc LIG
381 182 10 0.000000 15.572000 29.695000 18.477459 # Oc LIG
382 182 2 0.000000 5.090000 5.552000 23.666460 # Ca LIG
383 182 2 0.000000 18.146000 28.167000 23.666460 # Ca LIG
384 182 3 0.000000 5.826000 4.672000 22.726460 # Cb LIG
385 182 3 0.000000 18.882000 27.287001 22.726460 # Cb LIG
386 182 4 0.000000 6.070000 5.022000 21.358459 # Cc LIG
387 182 4 0.000000 19.127001 27.636999 21.358459 # Cc LIG
388 182 5 0.000000 6.284000 3.444000 23.221460 # Cd LIG
389 182 5 0.000000 19.340000 26.059000 23.221460 # Cd LIG
390 182 6 0.000000 6.080000 3.197000 17.344460 # H LIG
391 182 6 0.000000 19.136999 25.812000 17.344460 # H LIG
392 182 2 0.000000 7.967000 1.987000 20.138460 # Ca LIG
393 182 2 0.000000 21.024000 24.601999 20.138460 # Ca LIG
394 182 3 0.000000 7.231000 2.866000 21.078461 # Cb LIG
395 182 3 0.000000 20.288000 25.481001 21.078461 # Cb LIG
396 182 4 0.000000 6.987000 2.516000 22.446461 # Cc LIG
397 182 4 0.000000 20.042999 25.131001 22.446461 # Cc LIG
398 182 5 0.000000 6.773000 4.094000 20.583460 # Cd LIG
399 182 5 0.000000 19.830000 26.709000 20.583460 # Cd LIG
400 182 6 0.000000 6.977000 4.341000 19.543461 # H LIG
401 182 6 0.000000 20.033001 26.955999 19.543461 # H LIG
402 182 9 0.000000 8.216000 2.357000 18.948460 # Ob LIG
403 182 9 0.000000 21.273001 24.972000 18.948460 # Ob LIG
404 182 2 0.000000 2.263000 7.893000 21.360460 # Ca LIG
405 182 2 0.000000 15.320000 30.507999 21.360460 # Ca LIG
406 182 3 0.000000 1.133000 7.696000 20.421459 # Cb LIG
407 182 3 0.000000 14.190000 30.311001 20.421459 # Cb LIG
408 182 4 0.000000 1.314000 7.309000 19.053459 # Cc LIG
409 182 4 0.000000 14.371000 29.924000 19.053459 # Cc LIG
410 182 5 0.000000 12.898000 30.528000 20.916460 # Cd LIG
411 182 5 0.000000 25.954000 7.913000 20.916460 # Cd LIG
412 182 6 0.000000 12.785000 30.827999 21.955460 # H LIG
413 182 6 0.000000 25.841999 8.213000 21.955460 # H LIG
414 182 9 0.000000 2.067000 8.293000 22.550461 # Ob LIG
415 182 9 0.000000 15.124000 30.908001 22.550461 # Ob LIG
416 182 3 0.000000 11.924000 29.996000 18.773460 # Cb LIG
417 182 3 0.000000 24.980000 7.381000 18.773460 # Cb LIG
418 182 4 0.000000 11.743000 30.382999 20.140461 # Cc LIG
419 182 4 0.000000 24.799000 7.768000 20.140461 # Cc LIG
420 182 5 0.000000 0.159000 7.164000 18.277460 # Cd LIG
421 182 5 0.000000 13.216000 29.778999 18.277460 # Cd LIG
422 182 2 0.000000 10.794000 29.799000 17.833460 # Ca LIG
423 182 2 0.000000 23.851000 7.184000 17.833460 # Ca LIG
424 182 9 0.000000 10.990000 29.398001 23.559460 # Ob LIG
425 182 9 0.000000 24.047001 6.783000 23.559460 # Ob LIG
426 182 2 0.000000 5.090000 20.628000 21.360460 # Ca LIG
427 182 2 0.000000 18.146000 43.243000 21.360460 # Ca LIG
428 182 3 0.000000 5.826000 19.749001 20.421459 # Cb LIG
429 182 3 0.000000 18.882000 42.363998 20.421459 # Cb LIG
430 182 4 0.000000 6.070000 20.099001 19.053459 # Cc LIG
431 182 4 0.000000 19.127001 42.714001 19.053459 # Cc LIG
432 182 5 0.000000 6.284000 18.521000 20.916460 # Cd LIG
433 182 5 0.000000 19.341000 41.136002 20.916460 # Cd LIG
434 182 6 0.000000 6.080000 18.274000 21.955460 # H LIG
435 182 6 0.000000 19.136999 40.889000 21.955460 # H LIG
436 182 9 0.000000 4.841000 20.257999 22.550461 # Ob LIG
437 182 9 0.000000 17.898001 42.873001 22.550461 # Ob LIG
438 182 3 0.000000 7.231000 17.943001 18.773460 # Cb LIG
439 182 3 0.000000 20.288000 40.557999 18.773460 # Cb LIG
440 182 4 0.000000 6.987000 17.593000 20.140461 # Cc LIG
441 182 4 0.000000 20.042999 40.208000 20.140461 # Cc LIG
442 182 5 0.000000 6.773000 19.171000 18.277460 # Cd LIG
443 182 5 0.000000 19.830000 41.785999 18.277460 # Cd LIG
444 182 2 0.000000 7.967000 17.063000 17.833460 # Ca LIG
445 182 2 0.000000 21.024000 39.678001 17.833460 # Ca LIG
446 182 9 0.000000 8.216000 17.433001 23.559460 # Ob LIG
447 182 9 0.000000 21.273001 40.048000 23.559460 # Ob LIG
448 182 9 0.000000 6.149000 24.216999 17.939461 # Ob LIG
449 182 9 0.000000 19.205999 1.602000 17.939461 # Ob LIG
450 182 8 0.000000 3.455000 22.708000 18.627460 # Oa LIG
451 182 8 0.000000 16.511000 0.093000 18.627460 # Oa LIG
452 182 10 0.000000 4.874000 24.434999 20.783461 # Oc LIG
453 182 10 0.000000 17.930000 1.820000 20.783461 # Oc LIG
454 182 2 0.000000 5.704000 24.247000 23.666460 # Ca LIG
455 182 2 0.000000 18.761000 1.632000 23.666460 # Ca LIG
456 182 3 0.000000 6.098000 25.323999 22.726460 # Cb LIG
457 182 3 0.000000 19.155001 2.709000 22.726460 # Cb LIG
458 182 4 0.000000 5.672000 25.361000 21.358459 # Cc LIG
459 182 4 0.000000 18.729000 2.746000 21.358459 # Cc LIG
460 182 5 0.000000 6.932000 26.334999 23.221460 # Cd LIG
461 182 5 0.000000 19.989000 3.720000 23.221460 # Cd LIG
462 182 6 0.000000 7.248000 26.282000 17.344460 # H LIG
463 182 6 0.000000 20.305000 3.667000 17.344460 # H LIG
464 182 8 0.000000 4.881000 23.346001 23.238461 # Oa LIG
465 182 8 0.000000 17.938000 0.731000 23.238461 # Oa LIG
466 182 2 0.000000 7.353000 28.521000 20.138460 # Ca LIG
467 182 2 0.000000 20.409000 5.906000 20.138460 # Ca LIG
468 182 3 0.000000 6.959000 27.444000 21.078461 # Cb LIG
469 182 3 0.000000 20.016001 4.829000 21.078461 # Cb LIG
470 182 4 0.000000 7.384000 27.407000 22.446461 # Cc LIG
471 182 4 0.000000 20.441000 4.792000 22.446461 # Cc LIG
472 182 5 0.000000 6.125000 26.434000 20.583460 # Cd LIG
473 182 5 0.000000 19.181000 3.819000 20.583460 # Cd LIG
474 182 6 0.000000 5.809000 26.486000 19.543461 # H LIG
475 182 6 0.000000 18.865999 3.871000 19.543461 # H LIG
476 182 9 0.000000 6.908000 28.552000 18.948460 # Ob LIG
477 182 9 0.000000 19.965000 5.937000 18.948460 # Ob LIG
478 182 8 0.000000 8.175000 29.422001 20.566460 # Oa LIG
479 182 8 0.000000 21.232000 6.807000 20.566460 # Oa LIG
480 182 10 0.000000 8.183000 28.333000 23.021460 # Oc LIG
481 182 10 0.000000 21.240000 5.718000 23.021460 # Oc LIG
482 182 2 0.000000 2.263000 22.969999 19.055460 # Ca LIG
483 182 2 0.000000 15.320000 0.355000 19.055460 # Ca LIG
484 182 3 0.000000 1.133000 22.771999 18.115459 # Cb LIG
485 182 3 0.000000 14.190000 0.157000 18.115459 # Cb LIG
486 182 5 0.000000 12.898000 0.374000 18.610460 # Cd LIG
487 182 5 0.000000 25.954000 22.989000 18.610460 # Cd LIG
488 182 6 0.000000 12.785000 0.674000 19.650459 # H LIG
489 182 6 0.000000 25.841999 23.289000 19.650459 # H LIG
490 182 9 0.000000 2.067000 23.370001 20.245461 # Ob LIG
491 182 9 0.000000 15.124000 0.755000 20.245461 # Ob LIG
492 182 10 0.000000 7.389000 31.514999 18.410460 # Oc LIG
493 182 10 0.000000 20.445999 8.900000 18.410460 # Oc LIG
494 182 6 0.000000 5.809000 41.563000 24.154461 # H LIG
495 182 6 0.000000 18.865999 18.948000 24.154461 # H LIG
496 182 10 0.000000 10.541000 0.459000 18.410460 # Oc LIG
497 182 10 0.000000 23.598000 23.073999 18.410460 # Oc LIG
498 182 4 0.000000 11.743000 0.230000 17.835461 # Cc LIG
499 182 4 0.000000 24.799999 22.844999 17.835461 # Cc LIG
500 182 4 0.000000 6.986000 32.669998 17.835461 # Cc LIG
501 182 4 0.000000 20.042999 10.055000 17.835461 # Cc LIG
502 182 6 0.000000 0.271000 6.864000 24.154461 # H LIG
503 182 6 0.000000 13.328000 29.479000 24.154461 # H LIG
504 182 6 0.000000 6.977000 19.417999 24.154461 # H LIG
505 182 6 0.000000 20.033001 42.033001 24.154461 # H LIG
506 182 7 0.000000 5.314000 7.966000 0.934500 # Mg LIG
507 182 7 0.000000 18.371000 30.580999 0.934500 # Mg LIG
508 182 7 0.000000 4.242000 6.491000 26.295460 # Mg LIG
509 182 7 0.000000 17.299000 29.106001 26.295460 # Mg LIG
510 182 7 0.000000 3.501000 8.158000 3.240500 # Mg LIG
511 182 7 0.000000 16.558001 30.773001 3.240500 # Mg LIG
512 182 7 0.000000 7.743000 14.649000 26.732460 # Mg LIG
513 182 7 0.000000 20.799000 37.264000 26.732460 # Mg LIG
514 182 7 0.000000 8.815000 16.124001 1.370500 # Mg LIG
515 182 7 0.000000 21.872000 38.738998 1.370500 # Mg LIG
516 182 7 0.000000 9.556000 14.457000 24.426460 # Mg LIG
517 182 7 0.000000 22.613001 37.071999 24.426460 # Mg LIG
518 182 7 0.000000 8.815000 31.200001 26.732460 # Mg LIG
519 182 7 0.000000 21.872000 8.585000 26.732460 # Mg LIG
520 182 7 0.000000 9.556000 29.534000 1.370500 # Mg LIG
521 182 7 0.000000 22.613001 6.919000 1.370500 # Mg LIG