LAMMPS data file. CGCMM style. atom_style full generated by VMD/TopoTools v1.5 on Sun Apr 09 11:00:25 PDT 2017
 1488 atoms
 128 bonds
 0 angles
 0 dihedrals
 0 impropers
 11 atom types
 1 bond types
 0 angle types
 0 dihedral types
 0 improper types
 0.439550 26.456750  xlo xhi
 0.332838 45.395937  ylo yhi
 -0.067739 27.247740  zlo zhi

# Pair Coeffs
#
# 1  Ca
# 2  Cb
# 3  Cc
# 4  Cd
# 5  Cg
# 6  H
# 7  Ni
# 8  Oa
# 9  Ob
# 10  Oc
# 11  Og

 Masses

 1 12.011000 # Ca
 2 12.011000 # Cb
 3 12.011000 # Cc
 4 12.011000 # Cd
 5 12.011000 # Cg
 6 1.008000 # H
 7 58.693001 # Ni
 8 15.999000 # Oa
 9 15.999000 # Ob
 10 15.999000 # Oc
 11 15.999000 # Og

 Atoms

1 1 11 -0.325600 26.017300 45.062775 16.831001 # Og 
2 1 5 0.651200 26.017300 45.062775 15.671000 # Cg 
3 1 11 -0.325600 26.017300 45.062775 14.511001 # Og 
4 2 11 -0.325600 26.017300 45.062775 18.538000 # Og 
5 2 5 0.651200 26.017300 45.062775 17.378000 # Cg 
6 2 11 -0.325600 26.017300 45.062775 16.218000 # Og 
7 3 11 -0.325600 26.017300 45.062775 20.245001 # Og 
8 3 5 0.651200 26.017300 45.062775 19.085001 # Cg 
9 3 11 -0.325600 26.017300 45.062775 17.924999 # Og 
10 4 11 -0.325600 26.017300 45.062775 21.953001 # Og 
11 4 5 0.651200 26.017300 45.062775 20.793001 # Cg 
12 4 11 -0.325600 26.017300 45.062775 19.632999 # Og 
13 5 11 -0.325600 26.017300 45.062775 23.660000 # Og 
14 5 5 0.651200 26.017300 45.062775 22.500000 # Cg 
15 5 11 -0.325600 26.017300 45.062775 21.340000 # Og 
16 6 11 -0.325600 26.017300 45.062775 25.367001 # Og 
17 6 5 0.651200 26.017300 45.062775 24.207001 # Cg 
18 6 11 -0.325600 26.017300 45.062775 23.047001 # Og 
19 7 11 -0.325600 26.017300 45.062775 27.074001 # Og 
20 7 5 0.651200 26.017300 45.062775 25.914001 # Cg 
21 7 11 -0.325600 26.017300 45.062775 24.754000 # Og 
22 8 11 -0.325600 26.017300 45.062775 1.466000 # Og 
23 8 5 0.651200 26.017300 45.062775 0.306000 # Cg 
24 8 11 -0.325600 26.017300 45.062775 26.461000 # Og 
25 9 11 -0.325600 26.017300 45.062775 3.174000 # Og 
26 9 5 0.651200 26.017300 45.062775 2.014000 # Cg 
27 9 11 -0.325600 26.017300 45.062775 0.854000 # Og 
28 10 11 -0.325600 26.017300 45.062775 4.881000 # Og 
29 10 5 0.651200 26.017300 45.062775 3.721000 # Cg 
30 10 11 -0.325600 26.017300 45.062775 2.561000 # Og 
31 11 11 -0.325600 26.017300 45.062775 6.588000 # Og 
32 11 5 0.651200 26.017300 45.062775 5.428000 # Cg 
33 11 11 -0.325600 26.017300 45.062775 4.268000 # Og 
34 12 11 -0.325600 26.017300 45.062775 8.295000 # Og 
35 12 5 0.651200 26.017300 45.062775 7.135000 # Cg 
36 12 11 -0.325600 26.017300 45.062775 5.975000 # Og 
37 13 11 -0.325600 26.017300 45.062775 10.002000 # Og 
38 13 5 0.651200 26.017300 45.062775 8.842000 # Cg 
39 13 11 -0.325600 26.017300 45.062775 7.682000 # Og 
40 14 11 -0.325600 26.017300 45.062775 11.710000 # Og 
41 14 5 0.651200 26.017300 45.062775 10.550000 # Cg 
42 14 11 -0.325600 26.017300 45.062775 9.390000 # Og 
43 15 11 -0.325600 26.017300 45.062775 13.417000 # Og 
44 15 5 0.651200 26.017300 45.062775 12.257000 # Cg 
45 15 11 -0.325600 26.017300 45.062775 11.097000 # Og 
46 16 11 -0.325600 26.017300 45.062775 15.124000 # Og 
47 16 5 0.651200 26.017300 45.062775 13.964000 # Cg 
48 16 11 -0.325600 26.017300 45.062775 12.804000 # Og 
49 17 11 -0.325600 26.017300 22.531775 16.831001 # Og 
50 17 5 0.651200 26.017300 22.531775 15.671000 # Cg 
51 17 11 -0.325600 26.017300 22.531775 14.511001 # Og 
52 18 11 -0.325600 26.017300 22.531775 18.538000 # Og 
53 18 5 0.651200 26.017300 22.531775 17.378000 # Cg 
54 18 11 -0.325600 26.017300 22.531775 16.218000 # Og 
55 19 11 -0.325600 26.017300 22.531775 20.245001 # Og 
56 19 5 0.651200 26.017300 22.531775 19.085001 # Cg 
57 19 11 -0.325600 26.017300 22.531775 17.924999 # Og 
58 20 11 -0.325600 26.017300 22.531775 21.953001 # Og 
59 20 5 0.651200 26.017300 22.531775 20.793001 # Cg 
60 20 11 -0.325600 26.017300 22.531775 19.632999 # Og 
61 21 11 -0.325600 26.017300 22.531775 23.660000 # Og 
62 21 5 0.651200 26.017300 22.531775 22.500000 # Cg 
63 21 11 -0.325600 26.017300 22.531775 21.340000 # Og 
64 22 11 -0.325600 26.017300 22.531775 25.367001 # Og 
65 22 5 0.651200 26.017300 22.531775 24.207001 # Cg 
66 22 11 -0.325600 26.017300 22.531775 23.047001 # Og 
67 23 11 -0.325600 26.017300 22.531775 27.074001 # Og 
68 23 5 0.651200 26.017300 22.531775 25.914001 # Cg 
69 23 11 -0.325600 26.017300 22.531775 24.754000 # Og 
70 24 11 -0.325600 26.017300 22.531775 1.466000 # Og 
71 24 5 0.651200 26.017300 22.531775 0.306000 # Cg 
72 24 11 -0.325600 26.017300 22.531775 26.461000 # Og 
73 25 11 -0.325600 26.017300 22.531775 3.174000 # Og 
74 25 5 0.651200 26.017300 22.531775 2.014000 # Cg 
75 25 11 -0.325600 26.017300 22.531775 0.854000 # Og 
76 26 11 -0.325600 26.017300 22.531775 4.881000 # Og 
77 26 5 0.651200 26.017300 22.531775 3.721000 # Cg 
78 26 11 -0.325600 26.017300 22.531775 2.561000 # Og 
79 27 11 -0.325600 26.017300 22.531775 6.588000 # Og 
80 27 5 0.651200 26.017300 22.531775 5.428000 # Cg 
81 27 11 -0.325600 26.017300 22.531775 4.268000 # Og 
82 28 11 -0.325600 26.017300 22.531775 8.295000 # Og 
83 28 5 0.651200 26.017300 22.531775 7.135000 # Cg 
84 28 11 -0.325600 26.017300 22.531775 5.975000 # Og 
85 29 11 -0.325600 26.017300 22.531775 10.002000 # Og 
86 29 5 0.651200 26.017300 22.531775 8.842000 # Cg 
87 29 11 -0.325600 26.017300 22.531775 7.682000 # Og 
88 30 11 -0.325600 26.017300 22.531775 11.710000 # Og 
89 30 5 0.651200 26.017300 22.531775 10.550000 # Cg 
90 30 11 -0.325600 26.017300 22.531775 9.390000 # Og 
91 31 11 -0.325600 26.017300 22.531775 13.417000 # Og 
92 31 5 0.651200 26.017300 22.531775 12.257000 # Cg 
93 31 11 -0.325600 26.017300 22.531775 11.097000 # Og 
94 32 11 -0.325600 26.017300 22.531775 15.124000 # Og 
95 32 5 0.651200 26.017300 22.531775 13.964000 # Cg 
96 32 11 -0.325600 26.017300 22.531775 12.804000 # Og 
97 33 11 -0.325600 13.008301 45.062775 16.831001 # Og 
98 33 5 0.651200 13.008301 45.062775 15.671000 # Cg 
99 33 11 -0.325600 13.008301 45.062775 14.511001 # Og 
100 34 11 -0.325600 13.008301 45.062775 18.538000 # Og 
101 34 5 0.651200 13.008301 45.062775 17.378000 # Cg 
102 34 11 -0.325600 13.008301 45.062775 16.218000 # Og 
103 35 11 -0.325600 13.008301 45.062775 20.245001 # Og 
104 35 5 0.651200 13.008301 45.062775 19.085001 # Cg 
105 35 11 -0.325600 13.008301 45.062775 17.924999 # Og 
106 36 11 -0.325600 13.008301 45.062775 21.953001 # Og 
107 36 5 0.651200 13.008301 45.062775 20.793001 # Cg 
108 36 11 -0.325600 13.008301 45.062775 19.632999 # Og 
109 37 11 -0.325600 13.008301 45.062775 23.660000 # Og 
110 37 5 0.651200 13.008301 45.062775 22.500000 # Cg 
111 37 11 -0.325600 13.008301 45.062775 21.340000 # Og 
112 38 11 -0.325600 13.008301 45.062775 25.367001 # Og 
113 38 5 0.651200 13.008301 45.062775 24.207001 # Cg 
114 38 11 -0.325600 13.008301 45.062775 23.047001 # Og 
115 39 11 -0.325600 13.008301 45.062775 27.074001 # Og 
116 39 5 0.651200 13.008301 45.062775 25.914001 # Cg 
117 39 11 -0.325600 13.008301 45.062775 24.754000 # Og 
118 40 11 -0.325600 13.008301 45.062775 1.466000 # Og 
119 40 5 0.651200 13.008301 45.062775 0.306000 # Cg 
120 40 11 -0.325600 13.008301 45.062775 26.461000 # Og 
121 41 11 -0.325600 13.008301 45.062775 3.174000 # Og 
122 41 5 0.651200 13.008301 45.062775 2.014000 # Cg 
123 41 11 -0.325600 13.008301 45.062775 0.854000 # Og 
124 42 11 -0.325600 13.008301 45.062775 4.881000 # Og 
125 42 5 0.651200 13.008301 45.062775 3.721000 # Cg 
126 42 11 -0.325600 13.008301 45.062775 2.561000 # Og 
127 43 11 -0.325600 13.008301 45.062775 6.588000 # Og 
128 43 5 0.651200 13.008301 45.062775 5.428000 # Cg 
129 43 11 -0.325600 13.008301 45.062775 4.268000 # Og 
130 44 11 -0.325600 13.008301 45.062775 8.295000 # Og 
131 44 5 0.651200 13.008301 45.062775 7.135000 # Cg 
132 44 11 -0.325600 13.008301 45.062775 5.975000 # Og 
133 45 11 -0.325600 13.008301 45.062775 10.002000 # Og 
134 45 5 0.651200 13.008301 45.062775 8.842000 # Cg 
135 45 11 -0.325600 13.008301 45.062775 7.682000 # Og 
136 46 11 -0.325600 13.008301 45.062775 11.710000 # Og 
137 46 5 0.651200 13.008301 45.062775 10.550000 # Cg 
138 46 11 -0.325600 13.008301 45.062775 9.390000 # Og 
139 47 11 -0.325600 13.008301 45.062775 13.417000 # Og 
140 47 5 0.651200 13.008301 45.062775 12.257000 # Cg 
141 47 11 -0.325600 13.008301 45.062775 11.097000 # Og 
142 48 11 -0.325600 13.008301 45.062775 15.124000 # Og 
143 48 5 0.651200 13.008301 45.062775 13.964000 # Cg 
144 48 11 -0.325600 13.008301 45.062775 12.804000 # Og 
145 49 11 -0.325600 13.008301 22.531775 16.831001 # Og 
146 49 5 0.651200 13.008301 22.531775 15.671000 # Cg 
147 49 11 -0.325600 13.008301 22.531775 14.511001 # Og 
148 50 11 -0.325600 13.008301 22.531775 18.538000 # Og 
149 50 5 0.651200 13.008301 22.531775 17.378000 # Cg 
150 50 11 -0.325600 13.008301 22.531775 16.218000 # Og 
151 51 11 -0.325600 13.008301 22.531775 20.245001 # Og 
152 51 5 0.651200 13.008301 22.531775 19.085001 # Cg 
153 51 11 -0.325600 13.008301 22.531775 17.924999 # Og 
154 52 11 -0.325600 13.008301 22.531775 21.953001 # Og 
155 52 5 0.651200 13.008301 22.531775 20.793001 # Cg 
156 52 11 -0.325600 13.008301 22.531775 19.632999 # Og 
157 53 11 -0.325600 13.008301 22.531775 23.660000 # Og 
158 53 5 0.651200 13.008301 22.531775 22.500000 # Cg 
159 53 11 -0.325600 13.008301 22.531775 21.340000 # Og 
160 54 11 -0.325600 13.008301 22.531775 25.367001 # Og 
161 54 5 0.651200 13.008301 22.531775 24.207001 # Cg 
162 54 11 -0.325600 13.008301 22.531775 23.047001 # Og 
163 55 11 -0.325600 13.008301 22.531775 27.074001 # Og 
164 55 5 0.651200 13.008301 22.531775 25.914001 # Cg 
165 55 11 -0.325600 13.008301 22.531775 24.754000 # Og 
166 56 11 -0.325600 13.008301 22.531775 1.466000 # Og 
167 56 5 0.651200 13.008301 22.531775 0.306000 # Cg 
168 56 11 -0.325600 13.008301 22.531775 26.461000 # Og 
169 57 11 -0.325600 13.008301 22.531775 3.174000 # Og 
170 57 5 0.651200 13.008301 22.531775 2.014000 # Cg 
171 57 11 -0.325600 13.008301 22.531775 0.854000 # Og 
172 58 11 -0.325600 13.008301 22.531775 4.881000 # Og 
173 58 5 0.651200 13.008301 22.531775 3.721000 # Cg 
174 58 11 -0.325600 13.008301 22.531775 2.561000 # Og 
175 59 11 -0.325600 13.008301 22.531775 6.588000 # Og 
176 59 5 0.651200 13.008301 22.531775 5.428000 # Cg 
177 59 11 -0.325600 13.008301 22.531775 4.268000 # Og 
178 60 11 -0.325600 13.008301 22.531775 8.295000 # Og 
179 60 5 0.651200 13.008301 22.531775 7.135000 # Cg 
180 60 11 -0.325600 13.008301 22.531775 5.975000 # Og 
181 61 11 -0.325600 13.008301 22.531775 10.002000 # Og 
182 61 5 0.651200 13.008301 22.531775 8.842000 # Cg 
183 61 11 -0.325600 13.008301 22.531775 7.682000 # Og 
184 62 11 -0.325600 13.008301 22.531775 11.710000 # Og 
185 62 5 0.651200 13.008301 22.531775 10.550000 # Cg 
186 62 11 -0.325600 13.008301 22.531775 9.390000 # Og 
187 63 11 -0.325600 13.008301 22.531775 13.417000 # Og 
188 63 5 0.651200 13.008301 22.531775 12.257000 # Cg 
189 63 11 -0.325600 13.008301 22.531775 11.097000 # Og 
190 64 11 -0.325600 13.008301 22.531775 15.124000 # Og 
191 64 5 0.651200 13.008301 22.531775 13.964000 # Cg 
192 64 11 -0.325600 13.008301 22.531775 12.804000 # Og 
193 65 9 -0.696000 23.941000 21.823999 20.945980 # Ob LIG
194 65 9 -0.696000 10.932000 44.355999 20.945980 # Ob LIG
195 65 9 -0.696000 23.941000 6.803000 23.221979 # Ob LIG
196 65 9 -0.696000 10.932000 29.334000 23.221979 # Ob LIG
197 65 10 -0.785000 23.514999 7.995000 20.491980 # Oc LIG
198 65 10 -0.785000 10.506000 30.527000 20.491980 # Oc LIG
199 65 8 -0.789000 22.554001 7.442000 18.022980 # Oa LIG
200 65 8 -0.789000 9.546000 29.973000 18.022980 # Oa LIG
201 65 8 -0.789000 22.554001 22.462999 22.575979 # Oa LIG
202 65 8 -0.789000 9.546000 44.993999 22.575979 # Oa LIG
203 65 8 -0.789000 21.304001 8.301000 22.575979 # Oa LIG
204 65 8 -0.789000 8.295000 30.833000 22.575979 # Oa LIG
205 65 9 -0.696000 21.164000 9.821000 20.945980 # Ob LIG
206 65 9 -0.696000 8.155000 32.353001 20.945980 # Ob LIG
207 65 10 -0.785000 21.184000 20.701000 20.491980 # Oc LIG
208 65 10 -0.785000 8.176000 43.233002 20.491980 # Oc LIG
209 65 8 -0.789000 21.184999 21.809999 18.022980 # Oa LIG
210 65 8 -0.789000 8.176000 44.341000 18.022980 # Oa LIG
211 65 9 -0.696000 19.938000 20.927999 23.221979 # Ob LIG
212 65 9 -0.696000 6.930000 43.459999 23.221979 # Ob LIG
213 65 9 -0.696000 19.087999 16.624001 22.302979 # Ob LIG
214 65 9 -0.696000 6.079000 39.155998 22.302979 # Ob LIG
215 65 10 -0.785000 18.681999 13.676000 22.756979 # Oc LIG
216 65 10 -0.785000 5.673000 36.207001 22.756979 # Oc LIG
217 65 8 -0.789000 17.841000 15.743000 20.672979 # Oa LIG
218 65 8 -0.789000 4.833000 38.275002 20.672979 # Oa LIG
219 65 10 -0.785000 17.841999 16.851000 18.204979 # Oc LIG
220 65 10 -0.785000 4.833000 39.382999 18.204979 # Oc LIG
221 65 10 -0.785000 10.506000 0.485000 18.214979 # Oc LIG
222 65 10 -0.785000 23.514999 23.017000 18.214979 # Oc LIG
223 65 10 -0.785000 10.506000 15.506000 22.767979 # Oc LIG
224 65 10 -0.785000 23.514999 38.036999 22.767979 # Oc LIG
225 65 9 -0.696000 10.932000 14.313000 18.668980 # Ob LIG
226 65 9 -0.696000 23.941000 36.845001 18.668980 # Ob LIG
227 65 9 -0.696000 15.085000 0.708000 20.026979 # Ob LIG
228 65 9 -0.696000 2.076000 23.239000 20.026979 # Ob LIG
229 65 9 -0.696000 15.085000 15.729000 17.750980 # Ob LIG
230 65 9 -0.696000 2.077000 38.259998 17.750980 # Ob LIG
231 65 10 -0.785000 15.511000 14.536000 20.480980 # Oc LIG
232 65 10 -0.785000 2.503000 37.068001 20.480980 # Oc LIG
233 65 8 -0.789000 16.471001 15.090000 22.948978 # Oa LIG
234 65 8 -0.789000 3.463000 37.620998 22.948978 # Oa LIG
235 65 8 -0.789000 16.471001 0.069000 18.396980 # Oa LIG
236 65 8 -0.789000 3.463000 22.601000 18.396980 # Oa LIG
237 65 8 -0.789000 17.722000 14.230000 18.396980 # Oa LIG
238 65 8 -0.789000 4.713000 36.762001 18.396980 # Oa LIG
239 65 9 -0.696000 17.862000 12.710000 20.026979 # Ob LIG
240 65 9 -0.696000 4.853000 35.242001 20.026979 # Ob LIG
241 65 10 -0.785000 17.841000 1.831000 20.480980 # Oc LIG
242 65 10 -0.785000 4.833000 24.362000 20.480980 # Oc LIG
243 65 8 -0.789000 17.841000 0.722000 22.948978 # Oa LIG
244 65 8 -0.789000 4.833000 23.254000 22.948978 # Oa LIG
245 65 9 -0.696000 19.087000 1.603000 17.750980 # Ob LIG
246 65 9 -0.696000 6.079000 24.135000 17.750980 # Ob LIG
247 65 9 -0.696000 19.938000 5.907000 18.668980 # Ob LIG
248 65 9 -0.696000 6.930000 28.438999 18.668980 # Ob LIG
249 65 9 -0.696000 2.076000 8.218000 22.302979 # Ob LIG
250 65 9 -0.696000 15.085000 30.750000 22.302979 # Ob LIG
251 65 10 -0.785000 2.503000 7.026000 18.204979 # Oc LIG
252 65 10 -0.785000 15.511000 29.556999 18.204979 # Oc LIG
253 65 10 -0.785000 2.503000 22.047001 22.756979 # Oc LIG
254 65 10 -0.785000 15.511000 44.577999 22.756979 # Oc LIG
255 65 10 -0.785000 20.344000 8.856000 18.215981 # Oc LIG
256 65 10 -0.785000 7.336000 31.388000 18.215981 # Oc LIG
257 65 8 -0.789000 21.184999 6.789000 20.299980 # Oa LIG
258 65 8 -0.789000 8.176000 29.320000 20.299980 # Oa LIG
259 65 10 -0.785000 21.184000 5.680000 22.767979 # Oc LIG
260 65 10 -0.785000 8.176000 28.212000 22.767979 # Oc LIG
261 65 8 -0.789000 3.463000 7.579000 20.672979 # Oa LIG
262 65 8 -0.789000 16.471001 30.111000 20.672979 # Oa LIG
263 65 8 -0.789000 4.713000 6.720000 22.948978 # Oa LIG
264 65 8 -0.789000 17.722000 29.250999 22.948978 # Oa LIG
265 65 8 -0.789000 4.713000 21.740999 20.672979 # Oa LIG
266 65 8 -0.789000 17.722000 44.271999 20.672979 # Oa LIG
267 65 9 -0.696000 4.853000 5.200000 17.750980 # Ob LIG
268 65 9 -0.696000 17.862000 27.731001 17.750980 # Ob LIG
269 65 9 -0.696000 4.853000 20.221001 22.302979 # Ob LIG
270 65 9 -0.696000 17.862000 42.751999 22.302979 # Ob LIG
271 65 10 -0.785000 4.833000 9.341000 22.756979 # Oc LIG
272 65 10 -0.785000 17.841000 31.872999 22.756979 # Oc LIG
273 65 8 -0.789000 4.833000 8.232000 18.396980 # Oa LIG
274 65 8 -0.789000 17.841000 30.764000 18.396980 # Oa LIG
275 65 10 -0.785000 5.673000 6.165000 20.480980 # Oc LIG
276 65 10 -0.785000 18.681999 28.697001 20.480980 # Oc LIG
277 65 10 -0.785000 5.673000 21.186001 18.204979 # Oc LIG
278 65 10 -0.785000 18.681000 43.717999 18.204979 # Oc LIG
279 65 9 -0.696000 6.079000 9.114000 20.026979 # Ob LIG
280 65 9 -0.696000 19.087000 31.645000 20.026979 # Ob LIG
281 65 9 -0.696000 6.930000 13.418000 20.945980 # Ob LIG
282 65 9 -0.696000 19.938000 35.949001 20.945980 # Ob LIG
283 65 10 -0.785000 7.336000 1.345000 22.767979 # Oc LIG
284 65 10 -0.785000 20.344000 23.877001 22.767979 # Oc LIG
285 65 10 -0.785000 7.336000 16.365999 20.491980 # Oc LIG
286 65 10 -0.785000 20.344000 38.897999 20.491980 # Oc LIG
287 65 8 -0.789000 8.176000 14.299000 22.575979 # Oa LIG
288 65 8 -0.789000 21.184999 36.831001 22.575979 # Oa LIG
289 65 10 -0.785000 8.176000 13.190000 18.214979 # Oc LIG
290 65 10 -0.785000 21.184000 35.722000 18.214979 # Oc LIG
291 65 9 -0.696000 8.155000 2.311000 18.668980 # Ob LIG
292 65 9 -0.696000 21.164000 24.841999 18.668980 # Ob LIG
293 65 9 -0.696000 8.155000 17.332001 23.221979 # Ob LIG
294 65 9 -0.696000 21.164000 39.862999 23.221979 # Ob LIG
295 65 8 -0.789000 8.296000 0.791000 20.299980 # Oa LIG
296 65 8 -0.789000 21.304001 23.322001 20.299980 # Oa LIG
297 65 8 -0.789000 8.295000 15.812000 18.022980 # Oa LIG
298 65 8 -0.789000 21.304001 38.342999 18.022980 # Oa LIG
299 65 8 -0.789000 9.546000 14.952000 20.299980 # Oa LIG
300 65 8 -0.789000 22.554001 37.484001 20.299980 # Oa LIG
301 65 4 -0.173000 25.868000 7.878000 20.672979 # Cd LIG
302 65 4 -0.173000 12.860000 30.409000 20.672979 # Cd LIG
303 65 2 -0.349000 24.879999 7.373000 18.527981 # Cb LIG
304 65 2 -0.349000 11.871000 29.905001 18.527981 # Cb LIG
305 65 2 -0.349000 24.879999 22.393999 23.080978 # Cb LIG
306 65 2 -0.349000 11.871000 44.925999 23.080978 # Cb LIG
307 65 3 0.418000 24.708000 7.749000 19.900980 # Cc LIG
308 65 3 0.418000 11.699000 30.280001 19.900980 # Cc LIG
309 65 1 0.895000 23.745001 22.209999 22.137980 # Ca LIG
310 65 1 0.895000 10.736000 44.741001 22.137980 # Ca LIG
311 65 1 0.895000 23.745001 7.188000 17.585979 # Ca LIG
312 65 1 0.895000 10.736000 29.719999 17.585979 # Ca LIG
313 65 1 0.895000 20.927999 9.459000 22.137980 # Ca LIG
314 65 1 0.895000 7.919000 31.990999 22.137980 # Ca LIG
315 65 3 0.418000 20.374001 19.791000 19.900980 # Cc LIG
316 65 3 0.418000 7.365000 42.323002 19.900980 # Cc LIG
317 65 1 0.895000 20.370001 20.905001 17.585979 # Ca LIG
318 65 1 0.895000 7.361000 43.437000 17.585979 # Ca LIG
319 65 2 -0.349000 20.201000 10.350000 23.080978 # Cb LIG
320 65 2 -0.349000 7.192000 32.881001 23.080978 # Cb LIG
321 65 2 -0.349000 19.962999 19.830000 18.527981 # Cb LIG
322 65 2 -0.349000 6.954000 42.362000 18.527981 # Cb LIG
323 65 4 -0.173000 19.905001 18.722000 20.672979 # Cd LIG
324 65 4 -0.173000 6.897000 41.252998 20.672979 # Cd LIG
325 65 4 -0.173000 19.757000 11.578000 22.575979 # Cd LIG
326 65 4 -0.173000 6.749000 34.110001 22.575979 # Cd LIG
327 65 4 -0.173000 19.120001 18.830999 18.022980 # Cd LIG
328 65 4 -0.173000 6.112000 41.362999 18.022980 # Cd LIG
329 65 2 -0.349000 19.063000 17.723000 20.167980 # Cb LIG
330 65 2 -0.349000 6.055000 40.254002 20.167980 # Cb LIG
331 65 3 0.418000 19.065001 12.519000 23.347980 # Cc LIG
332 65 3 0.418000 6.056000 35.050999 23.347980 # Cc LIG
333 65 1 0.895000 18.656000 16.646999 21.110979 # Ca LIG
334 65 1 0.895000 5.647000 39.179001 21.110979 # Ca LIG
335 65 3 0.418000 18.652000 17.761000 18.795979 # Cc LIG
336 65 3 0.418000 5.643000 40.292999 18.795979 # Cc LIG
337 65 4 -0.173000 0.149000 7.143000 18.022980 # Cd LIG
338 65 4 -0.173000 13.157000 29.674999 18.022980 # Cd LIG
339 65 4 -0.173000 0.149000 22.164000 22.575979 # Cd LIG
340 65 4 -0.173000 13.157000 44.695999 22.575979 # Cd LIG
341 65 2 -0.349000 1.137000 7.648000 20.167980 # Cb LIG
342 65 2 -0.349000 14.146000 30.179001 20.167980 # Cb LIG
343 65 3 0.418000 1.309000 22.292999 23.347980 # Cc LIG
344 65 3 0.418000 14.318000 44.825001 23.347980 # Cc LIG
345 65 3 0.418000 1.309000 7.272000 18.795979 # Cc LIG
346 65 3 0.418000 14.318000 29.804001 18.795979 # Cc LIG
347 65 1 0.895000 10.736000 14.699000 19.861980 # Ca LIG
348 65 1 0.895000 23.745001 37.230000 19.861980 # Ca LIG
349 65 3 0.418000 11.699000 15.259000 22.176979 # Cc LIG
350 65 3 0.418000 24.708000 37.791000 22.176979 # Cc LIG
351 65 3 0.418000 11.699000 0.238000 17.624979 # Cc LIG
352 65 3 0.418000 24.708000 22.770000 17.624979 # Cc LIG
353 65 2 -0.349000 11.871000 14.884000 20.804979 # Cb LIG
354 65 2 -0.349000 24.879999 37.415001 20.804979 # Cb LIG
355 65 4 -0.173000 12.860000 0.367000 18.396980 # Cd LIG
356 65 4 -0.173000 25.868999 22.899000 18.396980 # Cd LIG
357 65 4 -0.173000 12.860000 15.388000 22.949980 # Cd LIG
358 65 4 -0.173000 25.868000 37.919998 22.949980 # Cd LIG
359 65 4 -0.173000 13.157000 14.654000 20.299980 # Cd LIG
360 65 4 -0.173000 0.149000 37.185001 20.299980 # Cd LIG
361 65 2 -0.349000 14.146000 15.158000 22.443979 # Cb LIG
362 65 2 -0.349000 1.137000 37.689999 22.443979 # Cb LIG
363 65 2 -0.349000 14.146000 0.137000 17.891979 # Cb LIG
364 65 2 -0.349000 1.137000 22.669001 17.891979 # Cb LIG
365 65 3 0.418000 14.318000 14.783000 21.071980 # Cc LIG
366 65 3 0.418000 1.309000 37.313999 21.071980 # Cc LIG
367 65 1 0.895000 15.281000 0.322000 18.834980 # Ca LIG
368 65 1 0.895000 2.272000 22.854000 18.834980 # Ca LIG
369 65 1 0.895000 15.281000 15.343000 23.386980 # Ca LIG
370 65 1 0.895000 2.272000 37.875000 23.386980 # Ca LIG
371 65 1 0.895000 18.098000 13.072000 18.833981 # Ca LIG
372 65 1 0.895000 5.089000 35.604000 18.833981 # Ca LIG
373 65 3 0.418000 18.652000 2.740000 21.071980 # Cc LIG
374 65 3 0.418000 5.643000 25.271999 21.071980 # Cc LIG
375 65 1 0.895000 18.656000 1.626000 23.386980 # Ca LIG
376 65 1 0.895000 5.647000 24.158001 23.386980 # Ca LIG
377 65 2 -0.349000 18.825001 12.182000 17.891979 # Cb LIG
378 65 2 -0.349000 5.816000 34.714001 17.891979 # Cb LIG
379 65 2 -0.349000 19.063000 2.701000 22.443979 # Cb LIG
380 65 2 -0.349000 6.055000 25.233000 22.443979 # Cb LIG
381 65 4 -0.173000 19.120001 3.810000 20.299980 # Cd LIG
382 65 4 -0.173000 6.111000 26.341999 20.299980 # Cd LIG
383 65 4 -0.173000 19.268999 10.953000 18.396980 # Cd LIG
384 65 4 -0.173000 6.260000 33.485001 18.396980 # Cd LIG
385 65 4 -0.173000 19.906000 3.700000 22.948978 # Cd LIG
386 65 4 -0.173000 6.897000 26.232000 22.948978 # Cd LIG
387 65 1 0.895000 2.272000 7.833000 21.110979 # Ca LIG
388 65 1 0.895000 15.281000 30.364000 21.110979 # Ca LIG
389 65 2 -0.349000 19.962000 4.809000 20.804979 # Cb LIG
390 65 2 -0.349000 6.954000 27.341000 20.804979 # Cb LIG
391 65 3 0.418000 19.961000 10.013000 17.624979 # Cc LIG
392 65 3 0.418000 6.953000 32.543999 17.624979 # Cc LIG
393 65 1 0.895000 20.370001 5.884000 19.861980 # Ca LIG
394 65 1 0.895000 7.361000 28.416000 19.861980 # Ca LIG
395 65 3 0.418000 20.374001 4.770000 22.176979 # Cc LIG
396 65 3 0.418000 7.366000 27.302000 22.176979 # Cc LIG
397 65 1 0.895000 5.089000 5.562000 23.386980 # Ca LIG
398 65 1 0.895000 18.098000 28.093000 23.386980 # Ca LIG
399 65 1 0.895000 5.089000 20.583000 21.110979 # Ca LIG
400 65 1 0.895000 18.098000 43.115002 21.110979 # Ca LIG
401 65 3 0.418000 5.643000 10.251000 23.347980 # Cc LIG
402 65 3 0.418000 18.652000 32.783001 23.347980 # Cc LIG
403 65 1 0.895000 5.647000 9.137000 18.834980 # Ca LIG
404 65 1 0.895000 18.656000 31.667999 18.834980 # Ca LIG
405 65 2 -0.349000 5.816000 4.671000 22.443979 # Cb LIG
406 65 2 -0.349000 18.825001 27.202999 22.443979 # Cb LIG
407 65 2 -0.349000 5.817000 19.693001 20.167980 # Cb LIG
408 65 2 -0.349000 18.825001 42.223999 20.167980 # Cb LIG
409 65 3 0.418000 6.056000 5.008000 21.071980 # Cc LIG
410 65 3 0.418000 19.065001 27.540001 21.071980 # Cc LIG
411 65 3 0.418000 6.056000 20.028999 18.795979 # Cc LIG
412 65 3 0.418000 19.063999 42.561001 18.795979 # Cc LIG
413 65 2 -0.349000 6.055000 10.212000 17.891979 # Cb LIG
414 65 2 -0.349000 19.063000 32.743000 17.891979 # Cb LIG
415 65 4 -0.173000 6.111000 11.321000 22.575979 # Cd LIG
416 65 4 -0.173000 19.120001 33.852001 22.575979 # Cd LIG
417 65 4 -0.173000 6.260000 3.443000 22.948978 # Cd LIG
418 65 4 -0.173000 19.268999 25.974001 22.948978 # Cd LIG
419 65 4 -0.173000 6.261000 18.464001 20.672979 # Cd LIG
420 65 4 -0.173000 19.268999 40.994999 20.672979 # Cd LIG
421 65 4 -0.173000 6.748000 4.068000 20.299980 # Cd LIG
422 65 4 -0.173000 19.757000 26.599001 20.299980 # Cd LIG
423 65 4 -0.173000 6.748000 19.089001 18.022980 # Cd LIG
424 65 4 -0.173000 19.757000 41.619999 18.022980 # Cd LIG
425 65 4 -0.173000 6.897000 11.211000 18.396980 # Cd LIG
426 65 4 -0.173000 19.906000 33.742001 18.396980 # Cd LIG
427 65 2 -0.349000 6.954000 12.320000 23.080978 # Cb LIG
428 65 2 -0.349000 19.962000 34.851002 23.080978 # Cb LIG
429 65 3 0.418000 6.953000 2.502000 22.176979 # Cc LIG
430 65 3 0.418000 19.961000 25.034000 22.176979 # Cc LIG
431 65 3 0.418000 6.953000 17.523001 19.900980 # Cc LIG
432 65 3 0.418000 19.961000 40.055000 19.900980 # Cc LIG
433 65 2 -0.349000 7.192000 2.839000 20.804979 # Cb LIG
434 65 2 -0.349000 20.201000 25.371000 20.804979 # Cb LIG
435 65 2 -0.349000 7.192000 17.860001 18.527981 # Cb LIG
436 65 2 -0.349000 20.201000 40.390999 18.527981 # Cb LIG
437 65 1 0.895000 7.361000 13.395000 22.137980 # Ca LIG
438 65 1 0.895000 20.370001 35.925999 22.137980 # Ca LIG
439 65 3 0.418000 7.366000 12.281000 17.624979 # Cc LIG
440 65 3 0.418000 20.374001 34.812000 17.624979 # Cc LIG
441 65 1 0.895000 7.919000 1.949000 19.861980 # Ca LIG
442 65 1 0.895000 20.927999 24.480000 19.861980 # Ca LIG
443 65 1 0.895000 7.919000 16.969999 17.585979 # Ca LIG
444 65 1 0.895000 20.927999 39.500999 17.585979 # Ca LIG
445 65 6 0.181000 25.764999 8.173000 21.715981 # H LIG
446 65 6 0.181000 12.756000 30.704000 21.715981 # H LIG
447 65 6 0.181000 20.212999 18.664000 21.715981 # H LIG
448 65 6 0.181000 7.204000 41.195999 21.715981 # H LIG
449 65 6 0.181000 19.961000 11.816000 21.532980 # H LIG
450 65 6 0.181000 6.952000 34.347000 21.532980 # H LIG
451 65 6 0.181000 18.813000 18.889000 23.808979 # H LIG
452 65 6 0.181000 5.805000 41.419998 23.808979 # H LIG
453 65 6 0.181000 0.252000 6.849000 23.808979 # H LIG
454 65 6 0.181000 13.261000 29.379999 23.808979 # H LIG
455 65 6 0.181000 0.252000 21.870001 21.532980 # H LIG
456 65 6 0.181000 13.261000 44.401001 21.532980 # H LIG
457 65 6 0.181000 12.756000 0.662000 19.439980 # H LIG
458 65 6 0.181000 25.764999 23.194000 19.439980 # H LIG
459 65 6 0.181000 12.756000 15.683000 17.163979 # H LIG
460 65 6 0.181000 25.764999 38.215000 17.163979 # H LIG
461 65 6 0.181000 13.261000 14.359000 19.255980 # H LIG
462 65 6 0.181000 0.252000 36.890999 19.255980 # H LIG
463 65 6 0.181000 18.813000 3.868000 19.256979 # H LIG
464 65 6 0.181000 5.804000 26.399000 19.256979 # H LIG
465 65 6 0.181000 19.065001 10.716000 19.439980 # H LIG
466 65 6 0.181000 6.057000 33.248001 19.439980 # H LIG
467 65 6 0.181000 20.212999 3.643000 17.163979 # H LIG
468 65 6 0.181000 7.204000 26.174000 17.163979 # H LIG
469 65 6 0.181000 5.804000 11.378000 21.532980 # H LIG
470 65 6 0.181000 18.813000 33.910000 21.532980 # H LIG
471 65 6 0.181000 6.057000 3.205000 17.163979 # H LIG
472 65 6 0.181000 19.065001 25.737000 17.163979 # H LIG
473 65 6 0.181000 6.057000 18.226999 21.715981 # H LIG
474 65 6 0.181000 19.066000 40.757999 21.715981 # H LIG
475 65 6 0.181000 6.952000 4.305000 19.256979 # H LIG
476 65 6 0.181000 19.959999 26.837000 19.256979 # H LIG
477 65 6 0.181000 6.951000 19.326000 23.808979 # H LIG
478 65 6 0.181000 19.959999 41.856998 23.808979 # H LIG
479 65 6 0.181000 7.204000 11.153000 19.439980 # H LIG
480 65 6 0.181000 20.212999 33.685001 19.439980 # H LIG
481 65 7 1.298000 22.488001 21.886000 19.548981 # Ni LIG
482 65 7 1.298000 9.479000 44.417999 19.548981 # Ni LIG
483 65 7 1.298000 20.719000 22.156000 21.825979 # Ni LIG
484 65 7 1.298000 7.710000 44.687000 21.825979 # Ni LIG
485 65 7 1.298000 8.828000 1.021000 17.272980 # Ni LIG
486 65 7 1.298000 21.837000 23.552999 17.272980 # Ni LIG
487 65 7 1.298000 16.538000 0.645000 21.423981 # Ni LIG
488 65 7 1.298000 3.529000 23.177000 21.423981 # Ni LIG
489 65 7 1.298000 18.306999 0.376000 19.147980 # Ni LIG
490 65 7 1.298000 5.299000 22.908001 19.147980 # Ni LIG
491 65 7 1.298000 4.181000 21.510000 23.699980 # Ni LIG
492 65 7 1.298000 17.188999 44.042000 23.699980 # Ni LIG
493 65 7 1.298000 22.488001 6.865000 21.824980 # Ni LIG
494 65 7 1.298000 9.479000 29.396999 21.824980 # Ni LIG
495 65 7 1.298000 21.837000 8.532000 19.548981 # Ni LIG
496 65 7 1.298000 8.828000 31.063000 19.548981 # Ni LIG
497 65 7 1.298000 20.718000 7.135000 17.272980 # Ni LIG
498 65 7 1.298000 7.710000 29.666000 17.272980 # Ni LIG
499 65 7 1.298000 3.529000 8.156000 23.699980 # Ni LIG
500 65 7 1.298000 16.538000 30.688000 23.699980 # Ni LIG
501 65 7 1.298000 4.180000 6.489000 19.147980 # Ni LIG
502 65 7 1.298000 17.188999 29.021000 19.147980 # Ni LIG
503 65 7 1.298000 5.299000 7.886000 21.423981 # Ni LIG
504 65 7 1.298000 18.306999 30.417999 21.423981 # Ni LIG
505 65 7 1.298000 7.710000 14.645000 19.548981 # Ni LIG
506 65 7 1.298000 20.719000 37.176998 19.548981 # Ni LIG
507 65 7 1.298000 8.828000 16.042000 21.824980 # Ni LIG
508 65 7 1.298000 21.837000 38.574001 21.824980 # Ni LIG
509 65 7 1.298000 9.479000 14.375000 17.272980 # Ni LIG
510 65 7 1.298000 22.488001 36.907001 17.272980 # Ni LIG
511 65 7 1.298000 18.306999 15.397000 23.699980 # Ni LIG
512 65 7 1.298000 5.299000 37.929001 23.699980 # Ni LIG
513 65 7 1.298000 16.538000 15.666000 19.146980 # Ni LIG
514 65 7 1.298000 3.529000 38.198002 19.146980 # Ni LIG
515 65 7 1.298000 17.188999 14.000000 21.423981 # Ni LIG
516 65 7 1.298000 4.180000 36.530998 21.423981 # Ni LIG
517 65 9 -0.696000 23.941000 21.823999 0.459500 # Ob LIG
518 65 9 -0.696000 10.932000 44.355999 0.459500 # Ob LIG
519 65 9 -0.696000 23.941000 6.803000 2.735500 # Ob LIG
520 65 9 -0.696000 10.932000 29.334000 2.735500 # Ob LIG
521 65 10 -0.785000 23.514999 7.995000 0.005500 # Oc LIG
522 65 10 -0.785000 10.506000 30.527000 0.005500 # Oc LIG
523 65 8 -0.789000 22.554001 7.442000 24.851978 # Oa LIG
524 65 8 -0.789000 9.546000 29.973000 24.851978 # Oa LIG