LAMMPS data file. CGCMM style. atom_style full generated by VMD/TopoTools v1.5 on Tue Apr 04 10:45:30 PDT 2017
 1331 atoms
 0 bonds
 0 angles
 0 dihedrals
 0 impropers
 10 atom types
 0 bond types
 0 angle types
 0 dihedral types
 0 improper types
 0.439550 26.456750  xlo xhi
 0.332838 45.395937  ylo yhi
 -0.387750 26.927729  zlo zhi

# Pair Coeffs
#
# 1  CH4
# 2  Ca
# 3  Cb
# 4  Cc
# 5  Cd
# 6  H
# 7  Ni
# 8  Oa
# 9  Ob
# 10  Oc

 Masses

 1 16.040001 # CH4
 2 12.011000 # Ca
 3 12.011000 # Cb
 4 12.011000 # Cc
 5 12.011000 # Cd
 6 1.008000 # H
 7 58.693001 # Ni
 8 15.999000 # Oa
 9 15.999000 # Ob
 10 15.999000 # Oc

 Atoms

1 1 1 0.000000 26.017300 45.062775 15.175000 # CH4 
2 2 1 0.000000 26.017300 45.062775 18.210001 # CH4 
3 3 1 0.000000 26.017300 45.062775 21.245001 # CH4 
4 4 1 0.000000 26.017300 45.062775 24.280001 # CH4 
5 5 1 0.000000 26.017300 45.062775 0.000000 # CH4 
6 6 1 0.000000 26.017300 45.062775 3.035000 # CH4 
7 7 1 0.000000 26.017300 45.062775 6.070000 # CH4 
8 8 1 0.000000 26.017300 45.062775 9.105000 # CH4 
9 9 1 0.000000 26.017300 45.062775 12.140000 # CH4 
10 10 1 0.000000 26.017300 22.531775 15.175000 # CH4 
11 11 1 0.000000 26.017300 22.531775 18.210001 # CH4 
12 12 1 0.000000 26.017300 22.531775 21.245001 # CH4 
13 13 1 0.000000 26.017300 22.531775 24.280001 # CH4 
14 14 1 0.000000 26.017300 22.531775 0.000000 # CH4 
15 15 1 0.000000 26.017300 22.531775 3.035000 # CH4 
16 16 1 0.000000 26.017300 22.531775 6.070000 # CH4 
17 17 1 0.000000 26.017300 22.531775 9.105000 # CH4 
18 18 1 0.000000 26.017300 22.531775 12.140000 # CH4 
19 19 1 0.000000 13.008301 45.062775 15.175000 # CH4 
20 20 1 0.000000 13.008301 45.062775 18.210001 # CH4 
21 21 1 0.000000 13.008301 45.062775 21.245001 # CH4 
22 22 1 0.000000 13.008301 45.062775 24.280001 # CH4 
23 23 1 0.000000 13.008301 45.062775 0.000000 # CH4 
24 24 1 0.000000 13.008301 45.062775 3.035000 # CH4 
25 25 1 0.000000 13.008301 45.062775 6.070000 # CH4 
26 26 1 0.000000 13.008301 45.062775 9.105000 # CH4 
27 27 1 0.000000 13.008301 45.062775 12.140000 # CH4 
28 28 1 0.000000 13.008301 22.531775 15.175000 # CH4 
29 29 1 0.000000 13.008301 22.531775 18.210001 # CH4 
30 30 1 0.000000 13.008301 22.531775 21.245001 # CH4 
31 31 1 0.000000 13.008301 22.531775 24.280001 # CH4 
32 32 1 0.000000 13.008301 22.531775 0.000000 # CH4 
33 33 1 0.000000 13.008301 22.531775 3.035000 # CH4 
34 34 1 0.000000 13.008301 22.531775 6.070000 # CH4 
35 35 1 0.000000 13.008301 22.531775 9.105000 # CH4 
36 36 9 0.000000 23.941000 21.823999 20.945980 # Ob LIG
37 36 9 0.000000 10.932000 44.355999 20.945980 # Ob LIG
38 36 9 0.000000 23.941000 6.803000 23.221979 # Ob LIG
39 36 9 0.000000 10.932000 29.334000 23.221979 # Ob LIG
40 36 10 0.000000 23.514999 7.995000 20.491980 # Oc LIG
41 36 10 0.000000 10.506000 30.527000 20.491980 # Oc LIG
42 36 8 0.000000 22.554001 7.442000 18.022980 # Oa LIG
43 36 8 0.000000 9.546000 29.973000 18.022980 # Oa LIG
44 36 8 0.000000 22.554001 22.462999 22.575979 # Oa LIG
45 36 8 0.000000 9.546000 44.993999 22.575979 # Oa LIG
46 36 8 0.000000 21.304001 8.301000 22.575979 # Oa LIG
47 36 8 0.000000 8.295000 30.833000 22.575979 # Oa LIG
48 36 9 0.000000 21.164000 9.821000 20.945980 # Ob LIG
49 36 9 0.000000 8.155000 32.353001 20.945980 # Ob LIG
50 36 10 0.000000 21.184000 20.701000 20.491980 # Oc LIG
51 36 10 0.000000 8.176000 43.233002 20.491980 # Oc LIG
52 36 8 0.000000 21.184999 21.809999 18.022980 # Oa LIG
53 36 8 0.000000 8.176000 44.341000 18.022980 # Oa LIG
54 36 9 0.000000 19.938000 20.927999 23.221979 # Ob LIG
55 36 9 0.000000 6.930000 43.459999 23.221979 # Ob LIG
56 36 9 0.000000 19.087999 16.624001 22.302979 # Ob LIG
57 36 9 0.000000 6.079000 39.155998 22.302979 # Ob LIG
58 36 10 0.000000 18.681999 13.676000 22.756979 # Oc LIG
59 36 10 0.000000 5.673000 36.207001 22.756979 # Oc LIG
60 36 8 0.000000 17.841000 15.743000 20.672979 # Oa LIG
61 36 8 0.000000 4.833000 38.275002 20.672979 # Oa LIG
62 36 10 0.000000 17.841999 16.851000 18.204979 # Oc LIG
63 36 10 0.000000 4.833000 39.382999 18.204979 # Oc LIG
64 36 10 0.000000 10.506000 0.485000 18.214979 # Oc LIG
65 36 10 0.000000 23.514999 23.017000 18.214979 # Oc LIG
66 36 10 0.000000 10.506000 15.506000 22.767979 # Oc LIG
67 36 10 0.000000 23.514999 38.036999 22.767979 # Oc LIG
68 36 9 0.000000 10.932000 14.313000 18.668980 # Ob LIG
69 36 9 0.000000 23.941000 36.845001 18.668980 # Ob LIG
70 36 9 0.000000 15.085000 0.708000 20.026979 # Ob LIG
71 36 9 0.000000 2.076000 23.239000 20.026979 # Ob LIG
72 36 9 0.000000 15.085000 15.729000 17.750980 # Ob LIG
73 36 9 0.000000 2.077000 38.259998 17.750980 # Ob LIG
74 36 10 0.000000 15.511000 14.536000 20.480980 # Oc LIG
75 36 10 0.000000 2.503000 37.068001 20.480980 # Oc LIG
76 36 8 0.000000 16.471001 15.090000 22.948978 # Oa LIG
77 36 8 0.000000 3.463000 37.620998 22.948978 # Oa LIG
78 36 8 0.000000 16.471001 0.069000 18.396980 # Oa LIG
79 36 8 0.000000 3.463000 22.601000 18.396980 # Oa LIG
80 36 8 0.000000 17.722000 14.230000 18.396980 # Oa LIG
81 36 8 0.000000 4.713000 36.762001 18.396980 # Oa LIG
82 36 9 0.000000 17.862000 12.710000 20.026979 # Ob LIG
83 36 9 0.000000 4.853000 35.242001 20.026979 # Ob LIG
84 36 10 0.000000 17.841000 1.831000 20.480980 # Oc LIG
85 36 10 0.000000 4.833000 24.362000 20.480980 # Oc LIG
86 36 8 0.000000 17.841000 0.722000 22.948978 # Oa LIG
87 36 8 0.000000 4.833000 23.254000 22.948978 # Oa LIG
88 36 9 0.000000 19.087000 1.603000 17.750980 # Ob LIG
89 36 9 0.000000 6.079000 24.135000 17.750980 # Ob LIG
90 36 9 0.000000 19.938000 5.907000 18.668980 # Ob LIG
91 36 9 0.000000 6.930000 28.438999 18.668980 # Ob LIG
92 36 9 0.000000 2.076000 8.218000 22.302979 # Ob LIG
93 36 9 0.000000 15.085000 30.750000 22.302979 # Ob LIG
94 36 10 0.000000 2.503000 7.026000 18.204979 # Oc LIG
95 36 10 0.000000 15.511000 29.556999 18.204979 # Oc LIG
96 36 10 0.000000 2.503000 22.047001 22.756979 # Oc LIG
97 36 10 0.000000 15.511000 44.577999 22.756979 # Oc LIG
98 36 10 0.000000 20.344000 8.856000 18.215981 # Oc LIG
99 36 10 0.000000 7.336000 31.388000 18.215981 # Oc LIG
100 36 8 0.000000 21.184999 6.789000 20.299980 # Oa LIG
101 36 8 0.000000 8.176000 29.320000 20.299980 # Oa LIG
102 36 10 0.000000 21.184000 5.680000 22.767979 # Oc LIG
103 36 10 0.000000 8.176000 28.212000 22.767979 # Oc LIG
104 36 8 0.000000 3.463000 7.579000 20.672979 # Oa LIG
105 36 8 0.000000 16.471001 30.111000 20.672979 # Oa LIG
106 36 8 0.000000 4.713000 6.720000 22.948978 # Oa LIG
107 36 8 0.000000 17.722000 29.250999 22.948978 # Oa LIG
108 36 8 0.000000 4.713000 21.740999 20.672979 # Oa LIG
109 36 8 0.000000 17.722000 44.271999 20.672979 # Oa LIG
110 36 9 0.000000 4.853000 5.200000 17.750980 # Ob LIG
111 36 9 0.000000 17.862000 27.731001 17.750980 # Ob LIG
112 36 9 0.000000 4.853000 20.221001 22.302979 # Ob LIG
113 36 9 0.000000 17.862000 42.751999 22.302979 # Ob LIG
114 36 10 0.000000 4.833000 9.341000 22.756979 # Oc LIG
115 36 10 0.000000 17.841000 31.872999 22.756979 # Oc LIG
116 36 8 0.000000 4.833000 8.232000 18.396980 # Oa LIG
117 36 8 0.000000 17.841000 30.764000 18.396980 # Oa LIG
118 36 10 0.000000 5.673000 6.165000 20.480980 # Oc LIG
119 36 10 0.000000 18.681999 28.697001 20.480980 # Oc LIG
120 36 10 0.000000 5.673000 21.186001 18.204979 # Oc LIG
121 36 10 0.000000 18.681000 43.717999 18.204979 # Oc LIG
122 36 9 0.000000 6.079000 9.114000 20.026979 # Ob LIG
123 36 9 0.000000 19.087000 31.645000 20.026979 # Ob LIG
124 36 9 0.000000 6.930000 13.418000 20.945980 # Ob LIG
125 36 9 0.000000 19.938000 35.949001 20.945980 # Ob LIG
126 36 10 0.000000 7.336000 1.345000 22.767979 # Oc LIG
127 36 10 0.000000 20.344000 23.877001 22.767979 # Oc LIG
128 36 10 0.000000 7.336000 16.365999 20.491980 # Oc LIG
129 36 10 0.000000 20.344000 38.897999 20.491980 # Oc LIG
130 36 8 0.000000 8.176000 14.299000 22.575979 # Oa LIG
131 36 8 0.000000 21.184999 36.831001 22.575979 # Oa LIG
132 36 10 0.000000 8.176000 13.190000 18.214979 # Oc LIG
133 36 10 0.000000 21.184000 35.722000 18.214979 # Oc LIG
134 36 9 0.000000 8.155000 2.311000 18.668980 # Ob LIG
135 36 9 0.000000 21.164000 24.841999 18.668980 # Ob LIG
136 36 9 0.000000 8.155000 17.332001 23.221979 # Ob LIG
137 36 9 0.000000 21.164000 39.862999 23.221979 # Ob LIG
138 36 8 0.000000 8.296000 0.791000 20.299980 # Oa LIG
139 36 8 0.000000 21.304001 23.322001 20.299980 # Oa LIG
140 36 8 0.000000 8.295000 15.812000 18.022980 # Oa LIG
141 36 8 0.000000 21.304001 38.342999 18.022980 # Oa LIG
142 36 8 0.000000 9.546000 14.952000 20.299980 # Oa LIG
143 36 8 0.000000 22.554001 37.484001 20.299980 # Oa LIG
144 36 5 0.000000 25.868000 7.878000 20.672979 # Cd LIG
145 36 5 0.000000 12.860000 30.409000 20.672979 # Cd LIG
146 36 3 0.000000 24.879999 7.373000 18.527981 # Cb LIG
147 36 3 0.000000 11.871000 29.905001 18.527981 # Cb LIG
148 36 3 0.000000 24.879999 22.393999 23.080978 # Cb LIG
149 36 3 0.000000 11.871000 44.925999 23.080978 # Cb LIG
150 36 4 0.000000 24.708000 7.749000 19.900980 # Cc LIG
151 36 4 0.000000 11.699000 30.280001 19.900980 # Cc LIG
152 36 2 0.000000 23.745001 22.209999 22.137980 # Ca LIG
153 36 2 0.000000 10.736000 44.741001 22.137980 # Ca LIG
154 36 2 0.000000 23.745001 7.188000 17.585979 # Ca LIG
155 36 2 0.000000 10.736000 29.719999 17.585979 # Ca LIG
156 36 2 0.000000 20.927999 9.459000 22.137980 # Ca LIG
157 36 2 0.000000 7.919000 31.990999 22.137980 # Ca LIG
158 36 4 0.000000 20.374001 19.791000 19.900980 # Cc LIG
159 36 4 0.000000 7.365000 42.323002 19.900980 # Cc LIG
160 36 2 0.000000 20.370001 20.905001 17.585979 # Ca LIG
161 36 2 0.000000 7.361000 43.437000 17.585979 # Ca LIG
162 36 3 0.000000 20.201000 10.350000 23.080978 # Cb LIG
163 36 3 0.000000 7.192000 32.881001 23.080978 # Cb LIG
164 36 3 0.000000 19.962999 19.830000 18.527981 # Cb LIG
165 36 3 0.000000 6.954000 42.362000 18.527981 # Cb LIG
166 36 5 0.000000 19.905001 18.722000 20.672979 # Cd LIG
167 36 5 0.000000 6.897000 41.252998 20.672979 # Cd LIG
168 36 5 0.000000 19.757000 11.578000 22.575979 # Cd LIG
169 36 5 0.000000 6.749000 34.110001 22.575979 # Cd LIG
170 36 5 0.000000 19.120001 18.830999 18.022980 # Cd LIG
171 36 5 0.000000 6.112000 41.362999 18.022980 # Cd LIG
172 36 3 0.000000 19.063000 17.723000 20.167980 # Cb LIG
173 36 3 0.000000 6.055000 40.254002 20.167980 # Cb LIG
174 36 4 0.000000 19.065001 12.519000 23.347980 # Cc LIG
175 36 4 0.000000 6.056000 35.050999 23.347980 # Cc LIG
176 36 2 0.000000 18.656000 16.646999 21.110979 # Ca LIG
177 36 2 0.000000 5.647000 39.179001 21.110979 # Ca LIG
178 36 4 0.000000 18.652000 17.761000 18.795979 # Cc LIG
179 36 4 0.000000 5.643000 40.292999 18.795979 # Cc LIG
180 36 5 0.000000 0.149000 7.143000 18.022980 # Cd LIG
181 36 5 0.000000 13.157000 29.674999 18.022980 # Cd LIG
182 36 5 0.000000 0.149000 22.164000 22.575979 # Cd LIG
183 36 5 0.000000 13.157000 44.695999 22.575979 # Cd LIG
184 36 3 0.000000 1.137000 7.648000 20.167980 # Cb LIG
185 36 3 0.000000 14.146000 30.179001 20.167980 # Cb LIG
186 36 4 0.000000 1.309000 22.292999 23.347980 # Cc LIG
187 36 4 0.000000 14.318000 44.825001 23.347980 # Cc LIG
188 36 4 0.000000 1.309000 7.272000 18.795979 # Cc LIG
189 36 4 0.000000 14.318000 29.804001 18.795979 # Cc LIG
190 36 2 0.000000 10.736000 14.699000 19.861980 # Ca LIG
191 36 2 0.000000 23.745001 37.230000 19.861980 # Ca LIG
192 36 4 0.000000 11.699000 15.259000 22.176979 # Cc LIG
193 36 4 0.000000 24.708000 37.791000 22.176979 # Cc LIG
194 36 4 0.000000 11.699000 0.238000 17.624979 # Cc LIG
195 36 4 0.000000 24.708000 22.770000 17.624979 # Cc LIG
196 36 3 0.000000 11.871000 14.884000 20.804979 # Cb LIG
197 36 3 0.000000 24.879999 37.415001 20.804979 # Cb LIG
198 36 5 0.000000 12.860000 0.367000 18.396980 # Cd LIG
199 36 5 0.000000 25.868999 22.899000 18.396980 # Cd LIG
200 36 5 0.000000 12.860000 15.388000 22.949980 # Cd LIG
201 36 5 0.000000 25.868000 37.919998 22.949980 # Cd LIG
202 36 5 0.000000 13.157000 14.654000 20.299980 # Cd LIG
203 36 5 0.000000 0.149000 37.185001 20.299980 # Cd LIG
204 36 3 0.000000 14.146000 15.158000 22.443979 # Cb LIG
205 36 3 0.000000 1.137000 37.689999 22.443979 # Cb LIG
206 36 3 0.000000 14.146000 0.137000 17.891979 # Cb LIG
207 36 3 0.000000 1.137000 22.669001 17.891979 # Cb LIG
208 36 4 0.000000 14.318000 14.783000 21.071980 # Cc LIG
209 36 4 0.000000 1.309000 37.313999 21.071980 # Cc LIG
210 36 2 0.000000 15.281000 0.322000 18.834980 # Ca LIG
211 36 2 0.000000 2.272000 22.854000 18.834980 # Ca LIG
212 36 2 0.000000 15.281000 15.343000 23.386980 # Ca LIG
213 36 2 0.000000 2.272000 37.875000 23.386980 # Ca LIG
214 36 2 0.000000 18.098000 13.072000 18.833981 # Ca LIG
215 36 2 0.000000 5.089000 35.604000 18.833981 # Ca LIG
216 36 4 0.000000 18.652000 2.740000 21.071980 # Cc LIG
217 36 4 0.000000 5.643000 25.271999 21.071980 # Cc LIG
218 36 2 0.000000 18.656000 1.626000 23.386980 # Ca LIG
219 36 2 0.000000 5.647000 24.158001 23.386980 # Ca LIG
220 36 3 0.000000 18.825001 12.182000 17.891979 # Cb LIG
221 36 3 0.000000 5.816000 34.714001 17.891979 # Cb LIG
222 36 3 0.000000 19.063000 2.701000 22.443979 # Cb LIG
223 36 3 0.000000 6.055000 25.233000 22.443979 # Cb LIG
224 36 5 0.000000 19.120001 3.810000 20.299980 # Cd LIG
225 36 5 0.000000 6.111000 26.341999 20.299980 # Cd LIG
226 36 5 0.000000 19.268999 10.953000 18.396980 # Cd LIG
227 36 5 0.000000 6.260000 33.485001 18.396980 # Cd LIG
228 36 5 0.000000 19.906000 3.700000 22.948978 # Cd LIG
229 36 5 0.000000 6.897000 26.232000 22.948978 # Cd LIG
230 36 2 0.000000 2.272000 7.833000 21.110979 # Ca LIG
231 36 2 0.000000 15.281000 30.364000 21.110979 # Ca LIG
232 36 3 0.000000 19.962000 4.809000 20.804979 # Cb LIG
233 36 3 0.000000 6.954000 27.341000 20.804979 # Cb LIG
234 36 4 0.000000 19.961000 10.013000 17.624979 # Cc LIG
235 36 4 0.000000 6.953000 32.543999 17.624979 # Cc LIG
236 36 2 0.000000 20.370001 5.884000 19.861980 # Ca LIG
237 36 2 0.000000 7.361000 28.416000 19.861980 # Ca LIG
238 36 4 0.000000 20.374001 4.770000 22.176979 # Cc LIG
239 36 4 0.000000 7.366000 27.302000 22.176979 # Cc LIG
240 36 2 0.000000 5.089000 5.562000 23.386980 # Ca LIG
241 36 2 0.000000 18.098000 28.093000 23.386980 # Ca LIG
242 36 2 0.000000 5.089000 20.583000 21.110979 # Ca LIG
243 36 2 0.000000 18.098000 43.115002 21.110979 # Ca LIG
244 36 4 0.000000 5.643000 10.251000 23.347980 # Cc LIG
245 36 4 0.000000 18.652000 32.783001 23.347980 # Cc LIG
246 36 2 0.000000 5.647000 9.137000 18.834980 # Ca LIG
247 36 2 0.000000 18.656000 31.667999 18.834980 # Ca LIG
248 36 3 0.000000 5.816000 4.671000 22.443979 # Cb LIG
249 36 3 0.000000 18.825001 27.202999 22.443979 # Cb LIG
250 36 3 0.000000 5.817000 19.693001 20.167980 # Cb LIG
251 36 3 0.000000 18.825001 42.223999 20.167980 # Cb LIG
252 36 4 0.000000 6.056000 5.008000 21.071980 # Cc LIG
253 36 4 0.000000 19.065001 27.540001 21.071980 # Cc LIG
254 36 4 0.000000 6.056000 20.028999 18.795979 # Cc LIG
255 36 4 0.000000 19.063999 42.561001 18.795979 # Cc LIG
256 36 3 0.000000 6.055000 10.212000 17.891979 # Cb LIG
257 36 3 0.000000 19.063000 32.743000 17.891979 # Cb LIG
258 36 5 0.000000 6.111000 11.321000 22.575979 # Cd LIG
259 36 5 0.000000 19.120001 33.852001 22.575979 # Cd LIG
260 36 5 0.000000 6.260000 3.443000 22.948978 # Cd LIG
261 36 5 0.000000 19.268999 25.974001 22.948978 # Cd LIG
262 36 5 0.000000 6.261000 18.464001 20.672979 # Cd LIG
263 36 5 0.000000 19.268999 40.994999 20.672979 # Cd LIG
264 36 5 0.000000 6.748000 4.068000 20.299980 # Cd LIG
265 36 5 0.000000 19.757000 26.599001 20.299980 # Cd LIG
266 36 5 0.000000 6.748000 19.089001 18.022980 # Cd LIG
267 36 5 0.000000 19.757000 41.619999 18.022980 # Cd LIG
268 36 5 0.000000 6.897000 11.211000 18.396980 # Cd LIG
269 36 5 0.000000 19.906000 33.742001 18.396980 # Cd LIG
270 36 3 0.000000 6.954000 12.320000 23.080978 # Cb LIG
271 36 3 0.000000 19.962000 34.851002 23.080978 # Cb LIG
272 36 4 0.000000 6.953000 2.502000 22.176979 # Cc LIG
273 36 4 0.000000 19.961000 25.034000 22.176979 # Cc LIG
274 36 4 0.000000 6.953000 17.523001 19.900980 # Cc LIG
275 36 4 0.000000 19.961000 40.055000 19.900980 # Cc LIG
276 36 3 0.000000 7.192000 2.839000 20.804979 # Cb LIG
277 36 3 0.000000 20.201000 25.371000 20.804979 # Cb LIG
278 36 3 0.000000 7.192000 17.860001 18.527981 # Cb LIG
279 36 3 0.000000 20.201000 40.390999 18.527981 # Cb LIG
280 36 2 0.000000 7.361000 13.395000 22.137980 # Ca LIG
281 36 2 0.000000 20.370001 35.925999 22.137980 # Ca LIG
282 36 4 0.000000 7.366000 12.281000 17.624979 # Cc LIG
283 36 4 0.000000 20.374001 34.812000 17.624979 # Cc LIG
284 36 2 0.000000 7.919000 1.949000 19.861980 # Ca LIG
285 36 2 0.000000 20.927999 24.480000 19.861980 # Ca LIG
286 36 2 0.000000 7.919000 16.969999 17.585979 # Ca LIG
287 36 2 0.000000 20.927999 39.500999 17.585979 # Ca LIG
288 36 6 0.000000 25.764999 8.173000 21.715981 # H LIG
289 36 6 0.000000 12.756000 30.704000 21.715981 # H LIG
290 36 6 0.000000 20.212999 18.664000 21.715981 # H LIG
291 36 6 0.000000 7.204000 41.195999 21.715981 # H LIG
292 36 6 0.000000 19.961000 11.816000 21.532980 # H LIG
293 36 6 0.000000 6.952000 34.347000 21.532980 # H LIG
294 36 6 0.000000 18.813000 18.889000 23.808979 # H LIG
295 36 6 0.000000 5.805000 41.419998 23.808979 # H LIG
296 36 6 0.000000 0.252000 6.849000 23.808979 # H LIG
297 36 6 0.000000 13.261000 29.379999 23.808979 # H LIG
298 36 6 0.000000 0.252000 21.870001 21.532980 # H LIG
299 36 6 0.000000 13.261000 44.401001 21.532980 # H LIG
300 36 6 0.000000 12.756000 0.662000 19.439980 # H LIG
301 36 6 0.000000 25.764999 23.194000 19.439980 # H LIG
302 36 6 0.000000 12.756000 15.683000 17.163979 # H LIG
303 36 6 0.000000 25.764999 38.215000 17.163979 # H LIG
304 36 6 0.000000 13.261000 14.359000 19.255980 # H LIG
305 36 6 0.000000 0.252000 36.890999 19.255980 # H LIG
306 36 6 0.000000 18.813000 3.868000 19.256979 # H LIG
307 36 6 0.000000 5.804000 26.399000 19.256979 # H LIG
308 36 6 0.000000 19.065001 10.716000 19.439980 # H LIG
309 36 6 0.000000 6.057000 33.248001 19.439980 # H LIG
310 36 6 0.000000 20.212999 3.643000 17.163979 # H LIG
311 36 6 0.000000 7.204000 26.174000 17.163979 # H LIG
312 36 6 0.000000 5.804000 11.378000 21.532980 # H LIG
313 36 6 0.000000 18.813000 33.910000 21.532980 # H LIG
314 36 6 0.000000 6.057000 3.205000 17.163979 # H LIG
315 36 6 0.000000 19.065001 25.737000 17.163979 # H LIG
316 36 6 0.000000 6.057000 18.226999 21.715981 # H LIG
317 36 6 0.000000 19.066000 40.757999 21.715981 # H LIG
318 36 6 0.000000 6.952000 4.305000 19.256979 # H LIG
319 36 6 0.000000 19.959999 26.837000 19.256979 # H LIG
320 36 6 0.000000 6.951000 19.326000 23.808979 # H LIG
321 36 6 0.000000 19.959999 41.856998 23.808979 # H LIG
322 36 6 0.000000 7.204000 11.153000 19.439980 # H LIG
323 36 6 0.000000 20.212999 33.685001 19.439980 # H LIG
324 36 7 0.000000 22.488001 21.886000 19.548981 # Ni LIG
325 36 7 0.000000 9.479000 44.417999 19.548981 # Ni LIG
326 36 7 0.000000 20.719000 22.156000 21.825979 # Ni LIG
327 36 7 0.000000 7.710000 44.687000 21.825979 # Ni LIG
328 36 7 0.000000 8.828000 1.021000 17.272980 # Ni LIG
329 36 7 0.000000 21.837000 23.552999 17.272980 # Ni LIG
330 36 7 0.000000 16.538000 0.645000 21.423981 # Ni LIG
331 36 7 0.000000 3.529000 23.177000 21.423981 # Ni LIG
332 36 7 0.000000 18.306999 0.376000 19.147980 # Ni LIG
333 36 7 0.000000 5.299000 22.908001 19.147980 # Ni LIG
334 36 7 0.000000 4.181000 21.510000 23.699980 # Ni LIG
335 36 7 0.000000 17.188999 44.042000 23.699980 # Ni LIG
336 36 7 0.000000 22.488001 6.865000 21.824980 # Ni LIG
337 36 7 0.000000 9.479000 29.396999 21.824980 # Ni LIG
338 36 7 0.000000 21.837000 8.532000 19.548981 # Ni LIG
339 36 7 0.000000 8.828000 31.063000 19.548981 # Ni LIG
340 36 7 0.000000 20.718000 7.135000 17.272980 # Ni LIG
341 36 7 0.000000 7.710000 29.666000 17.272980 # Ni LIG
342 36 7 0.000000 3.529000 8.156000 23.699980 # Ni LIG
343 36 7 0.000000 16.538000 30.688000 23.699980 # Ni LIG
344 36 7 0.000000 4.180000 6.489000 19.147980 # Ni LIG
345 36 7 0.000000 17.188999 29.021000 19.147980 # Ni LIG
346 36 7 0.000000 5.299000 7.886000 21.423981 # Ni LIG
347 36 7 0.000000 18.306999 30.417999 21.423981 # Ni LIG
348 36 7 0.000000 7.710000 14.645000 19.548981 # Ni LIG
349 36 7 0.000000 20.719000 37.176998 19.548981 # Ni LIG
350 36 7 0.000000 8.828000 16.042000 21.824980 # Ni LIG
351 36 7 0.000000 21.837000 38.574001 21.824980 # Ni LIG
352 36 7 0.000000 9.479000 14.375000 17.272980 # Ni LIG
353 36 7 0.000000 22.488001 36.907001 17.272980 # Ni LIG
354 36 7 0.000000 18.306999 15.397000 23.699980 # Ni LIG
355 36 7 0.000000 5.299000 37.929001 23.699980 # Ni LIG
356 36 7 0.000000 16.538000 15.666000 19.146980 # Ni LIG
357 36 7 0.000000 3.529000 38.198002 19.146980 # Ni LIG
358 36 7 0.000000 17.188999 14.000000 21.423981 # Ni LIG
359 36 7 0.000000 4.180000 36.530998 21.423981 # Ni LIG
360 36 9 0.000000 23.941000 21.823999 0.459500 # Ob LIG
361 36 9 0.000000 10.932000 44.355999 0.459500 # Ob LIG
362 36 9 0.000000 23.941000 6.803000 2.735500 # Ob LIG
363 36 9 0.000000 10.932000 29.334000 2.735500 # Ob LIG
364 36 10 0.000000 23.514999 7.995000 0.005500 # Oc LIG
365 36 10 0.000000 10.506000 30.527000 0.005500 # Oc LIG
366 36 8 0.000000 22.554001 7.442000 24.851978 # Oa LIG
367 36 8 0.000000 9.546000 29.973000 24.851978 # Oa LIG
368 36 8 0.000000 22.554001 22.462999 2.089500 # Oa LIG
369 36 8 0.000000 9.546000 44.993999 2.089500 # Oa LIG
370 36 8 0.000000 21.304001 8.301000 2.089500 # Oa LIG
371 36 8 0.000000 8.295000 30.833000 2.089500 # Oa LIG
372 36 9 0.000000 21.164000 9.821000 0.459500 # Ob LIG
373 36 9 0.000000 8.155000 32.353001 0.459500 # Ob LIG
374 36 10 0.000000 21.184000 20.701000 0.005500 # Oc LIG
375 36 10 0.000000 8.176000 43.233002 0.005500 # Oc LIG
376 36 8 0.000000 21.184999 21.809999 24.851978 # Oa LIG
377 36 8 0.000000 8.176000 44.341000 24.851978 # Oa LIG
378 36 9 0.000000 19.938000 20.927999 2.735500 # Ob LIG
379 36 9 0.000000 6.930000 43.459999 2.735500 # Ob LIG
380 36 9 0.000000 19.087999 16.624001 1.816500 # Ob LIG
381 36 9 0.000000 6.079000 39.155998 1.816500 # Ob LIG
382 36 10 0.000000 18.681999 13.676000 2.270500 # Oc LIG
383 36 10 0.000000 5.673000 36.207001 2.270500 # Oc LIG
384 36 8 0.000000 17.841000 15.743000 0.186500 # Oa LIG
385 36 8 0.000000 4.833000 38.275002 0.186500 # Oa LIG
386 36 10 0.000000 17.841999 16.851000 25.033979 # Oc LIG
387 36 10 0.000000 4.833000 39.382999 25.033979 # Oc LIG
388 36 10 0.000000 10.506000 0.485000 25.043980 # Oc LIG
389 36 10 0.000000 23.514999 23.017000 25.043980 # Oc LIG
390 36 10 0.000000 10.506000 15.506000 2.281500 # Oc LIG
391 36 10 0.000000 23.514999 38.036999 2.281500 # Oc LIG
392 36 9 0.000000 10.932000 14.313000 25.497980 # Ob LIG
393 36 9 0.000000 23.941000 36.845001 25.497980 # Ob LIG
394 36 9 0.000000 15.085000 0.708000 26.855980 # Ob LIG
395 36 9 0.000000 2.076000 23.239000 26.855980 # Ob LIG
396 36 9 0.000000 15.085000 15.729000 24.579979 # Ob LIG
397 36 9 0.000000 2.077000 38.259998 24.579979 # Ob LIG
398 36 10 0.000000 15.511000 14.536000 27.309978 # Oc LIG
399 36 10 0.000000 2.503000 37.068001 27.309978 # Oc LIG
400 36 8 0.000000 16.471001 15.090000 2.462500 # Oa LIG
401 36 8 0.000000 3.463000 37.620998 2.462500 # Oa LIG
402 36 8 0.000000 16.471001 0.069000 25.225979 # Oa LIG
403 36 8 0.000000 3.463000 22.601000 25.225979 # Oa LIG
404 36 8 0.000000 17.722000 14.230000 25.225979 # Oa LIG
405 36 8 0.000000 4.713000 36.762001 25.225979 # Oa LIG
406 36 9 0.000000 17.862000 12.710000 26.855980 # Ob LIG
407 36 9 0.000000 4.853000 35.242001 26.855980 # Ob LIG
408 36 10 0.000000 17.841000 1.831000 27.309978 # Oc LIG
409 36 10 0.000000 4.833000 24.362000 27.309978 # Oc LIG
410 36 8 0.000000 17.841000 0.722000 2.462500 # Oa LIG
411 36 8 0.000000 4.833000 23.254000 2.462500 # Oa LIG
412 36 9 0.000000 19.087000 1.603000 24.579979 # Ob LIG
413 36 9 0.000000 6.079000 24.135000 24.579979 # Ob LIG
414 36 9 0.000000 19.938000 5.907000 25.497980 # Ob LIG
415 36 9 0.000000 6.930000 28.438999 25.497980 # Ob LIG
416 36 9 0.000000 2.076000 8.218000 1.816500 # Ob LIG
417 36 9 0.000000 15.085000 30.750000 1.816500 # Ob LIG
418 36 10 0.000000 2.503000 7.026000 25.033979 # Oc LIG
419 36 10 0.000000 15.511000 29.556999 25.033979 # Oc LIG
420 36 10 0.000000 2.503000 22.047001 2.270500 # Oc LIG
421 36 10 0.000000 15.511000 44.577999 2.270500 # Oc LIG
422 36 10 0.000000 20.344000 8.856000 25.044979 # Oc LIG
423 36 10 0.000000 7.336000 31.388000 25.044979 # Oc LIG
424 36 8 0.000000 21.184999 6.789000 27.128979 # Oa LIG
425 36 8 0.000000 8.176000 29.320000 27.128979 # Oa LIG
426 36 10 0.000000 21.184000 5.680000 2.281500 # Oc LIG
427 36 10 0.000000 8.176000 28.212000 2.281500 # Oc LIG
428 36 8 0.000000 3.463000 7.579000 0.186500 # Oa LIG
429 36 8 0.000000 16.471001 30.111000 0.186500 # Oa LIG
430 36 8 0.000000 4.713000 6.720000 2.462500 # Oa LIG
431 36 8 0.000000 17.722000 29.250999 2.462500 # Oa LIG
432 36 8 0.000000 4.713000 21.740999 0.186500 # Oa LIG
433 36 8 0.000000 17.722000 44.271999 0.186500 # Oa LIG
434 36 9 0.000000 4.853000 5.200000 24.579979 # Ob LIG
435 36 9 0.000000 17.862000 27.731001 24.579979 # Ob LIG
436 36 9 0.000000 4.853000 20.221001 1.816500 # Ob LIG
437 36 9 0.000000 17.862000 42.751999 1.816500 # Ob LIG
438 36 10 0.000000 4.833000 9.341000 2.270500 # Oc LIG
439 36 10 0.000000 17.841000 31.872999 2.270500 # Oc LIG
440 36 8 0.000000 4.833000 8.232000 25.225979 # Oa LIG
441 36 8 0.000000 17.841000 30.764000 25.225979 # Oa LIG
442 36 10 0.000000 5.673000 6.165000 27.309978 # Oc LIG
443 36 10 0.000000 18.681999 28.697001 27.309978 # Oc LIG
444 36 10 0.000000 5.673000 21.186001 25.033979 # Oc LIG
445 36 10 0.000000 18.681000 43.717999 25.033979 # Oc LIG
446 36 9 0.000000 6.079000 9.114000 26.855980 # Ob LIG
447 36 9 0.000000 19.087000 31.645000 26.855980 # Ob LIG
448 36 9 0.000000 6.930000 13.418000 0.459500 # Ob LIG
449 36 9 0.000000 19.938000 35.949001 0.459500 # Ob LIG
450 36 10 0.000000 7.336000 1.345000 2.281500 # Oc LIG
451 36 10 0.000000 20.344000 23.877001 2.281500 # Oc LIG
452 36 10 0.000000 7.336000 16.365999 0.005500 # Oc LIG
453 36 10 0.000000 20.344000 38.897999 0.005500 # Oc LIG
454 36 8 0.000000 8.176000 14.299000 2.089500 # Oa LIG
455 36 8 0.000000 21.184999 36.831001 2.089500 # Oa LIG
456 36 10 0.000000 8.176000 13.190000 25.043980 # Oc LIG
457 36 10 0.000000 21.184000 35.722000 25.043980 # Oc LIG
458 36 9 0.000000 8.155000 2.311000 25.497980 # Ob LIG
459 36 9 0.000000 21.164000 24.841999 25.497980 # Ob LIG
460 36 9 0.000000 8.155000 17.332001 2.735500 # Ob LIG
461 36 9 0.000000 21.164000 39.862999 2.735500 # Ob LIG
462 36 8 0.000000 8.296000 0.791000 27.128979 # Oa LIG
463 36 8 0.000000 21.304001 23.322001 27.128979 # Oa LIG
464 36 8 0.000000 8.295000 15.812000 24.851978 # Oa LIG
465 36 8 0.000000 21.304001 38.342999 24.851978 # Oa LIG
466 36 8 0.000000 9.546000 14.952000 27.128979 # Oa LIG
467 36 8 0.000000 22.554001 37.484001 27.128979 # Oa LIG
468 36 5 0.000000 25.868000 7.878000 0.186500 # Cd LIG
469 36 5 0.000000 12.860000 30.409000 0.186500 # Cd LIG
470 36 3 0.000000 24.879999 7.373000 25.356979 # Cb LIG
471 36 3 0.000000 11.871000 29.905001 25.356979 # Cb LIG
472 36 3 0.000000 24.879999 22.393999 2.594500 # Cb LIG
473 36 3 0.000000 11.871000 44.925999 2.594500 # Cb LIG
474 36 4 0.000000 24.708000 7.749000 26.729979 # Cc LIG
475 36 4 0.000000 11.699000 30.280001 26.729979 # Cc LIG
476 36 2 0.000000 23.745001 22.209999 1.651500 # Ca LIG
477 36 2 0.000000 10.736000 44.741001 1.651500 # Ca LIG
478 36 2 0.000000 23.745001 7.188000 24.414980 # Ca LIG
479 36 2 0.000000 10.736000 29.719999 24.414980 # Ca LIG
480 36 2 0.000000 20.927999 9.459000 1.651500 # Ca LIG
481 36 2 0.000000 7.919000 31.990999 1.651500 # Ca LIG
482 36 4 0.000000 20.374001 19.791000 26.729979 # Cc LIG
483 36 4 0.000000 7.365000 42.323002 26.729979 # Cc LIG
484 36 2 0.000000 20.370001 20.905001 24.414980 # Ca LIG
485 36 2 0.000000 7.361000 43.437000 24.414980 # Ca LIG
486 36 3 0.000000 20.201000 10.350000 2.594500 # Cb LIG
487 36 3 0.000000 7.192000 32.881001 2.594500 # Cb LIG
488 36 3 0.000000 19.962999 19.830000 25.356979 # Cb LIG
489 36 3 0.000000 6.954000 42.362000 25.356979 # Cb LIG
490 36 5 0.000000 19.905001 18.722000 0.186500 # Cd LIG
491 36 5 0.000000 6.897000 41.252998 0.186500 # Cd LIG
492 36 5 0.000000 19.757000 11.578000 2.089500 # Cd LIG
493 36 5 0.000000 6.749000 34.110001 2.089500 # Cd LIG
494 36 5 0.000000 19.120001 18.830999 24.851978 # Cd LIG
495 36 5 0.000000 6.112000 41.362999 24.851978 # Cd LIG
496 36 3 0.000000 19.063000 17.723000 26.996979 # Cb LIG
497 36 3 0.000000 6.055000 40.254002 26.996979 # Cb LIG
498 36 4 0.000000 19.065001 12.519000 2.861500 # Cc LIG
499 36 4 0.000000 6.056000 35.050999 2.861500 # Cc LIG
500 36 2 0.000000 18.656000 16.646999 0.624500 # Ca LIG
501 36 2 0.000000 5.647000 39.179001 0.624500 # Ca LIG
502 36 4 0.000000 18.652000 17.761000 25.624979 # Cc LIG
503 36 4 0.000000 5.643000 40.292999 25.624979 # Cc LIG
504 36 5 0.000000 0.149000 7.143000 24.851978 # Cd LIG
505 36 5 0.000000 13.157000 29.674999 24.851978 # Cd LIG
506 36 5 0.000000 0.149000 22.164000 2.089500 # Cd LIG
507 36 5 0.000000 13.157000 44.695999 2.089500 # Cd LIG
508 36 3 0.000000 1.137000 7.648000 26.996979 # Cb LIG
509 36 3 0.000000 14.146000 30.179001 26.996979 # Cb LIG
510 36 4 0.000000 1.309000 22.292999 2.861500 # Cc LIG
511 36 4 0.000000 14.318000 44.825001 2.861500 # Cc LIG
512 36 4 0.000000 1.309000 7.272000 25.624979 # Cc LIG
513 36 4 0.000000 14.318000 29.804001 25.624979 # Cc LIG
514 36 2 0.000000 10.736000 14.699000 26.690979 # Ca LIG
515 36 2 0.000000 23.745001 37.230000 26.690979 # Ca LIG
516 36 4 0.000000 11.699000 15.259000 1.690500 # Cc LIG
517 36 4 0.000000 24.708000 37.791000 1.690500 # Cc LIG
518 36 4 0.000000 11.699000 0.238000 24.453979 # Cc LIG
519 36 4 0.000000 24.708000 22.770000 24.453979 # Cc LIG
520 36 3 0.000000 11.871000 14.884000 0.318500 # Cb LIG
521 36 3 0.000000 24.879999 37.415001 0.318500 # Cb LIG
522 36 5 0.000000 12.860000 0.367000 25.225979 # Cd LIG
523 36 5 0.000000 25.868999 22.899000 25.225979 # Cd LIG
524 36 5 0.000000 12.860000 15.388000 2.463500 # Cd LIG
525 36 5 0.000000 25.868000 37.919998 2.463500 # Cd LIG