LAMMPS data file. CGCMM style. atom_style full generated by VMD/TopoTools v1.5 on Tue Apr 04 10:45:48 PDT 2017
 2809 atoms
 0 bonds
 0 angles
 0 dihedrals
 0 impropers
 10 atom types
 0 bond types
 0 angle types
 0 dihedral types
 0 improper types
 0.451838 52.642840  xlo xhi
 0.325101 45.523500  ylo yhi
 -0.250120 27.277121  zlo zhi

# Pair Coeffs
#
# 1  CH4
# 2  Ca
# 3  Cb
# 4  Cc
# 5  Cd
# 6  H
# 7  Oa
# 8  Ob
# 9  Oc
# 10  Zn

 Masses

 1 16.040001 # CH4
 2 12.011000 # Ca
 3 12.011000 # Cb
 4 12.011000 # Cc
 5 12.011000 # Cd
 6 1.008000 # H
 7 15.999000 # Oa
 8 15.999000 # Ob
 9 15.999000 # Oc
 10 65.379997 # Zn

 Atoms

1 1 1 0.000000 52.190678 45.197601 14.014001 # CH4 
2 2 1 0.000000 52.190678 45.197601 14.514001 # CH4 
3 3 1 0.000000 52.190678 45.197601 15.015000 # CH4 
4 4 1 0.000000 52.190678 45.197601 15.515000 # CH4 
5 5 1 0.000000 52.190678 45.197601 16.016001 # CH4 
6 6 1 0.000000 52.190678 45.197601 16.516001 # CH4 
7 7 1 0.000000 52.190678 45.197601 17.017000 # CH4 
8 8 1 0.000000 52.190678 45.197601 17.517000 # CH4 
9 9 1 0.000000 52.190678 45.197601 18.018002 # CH4 
10 10 1 0.000000 52.190678 45.197601 18.518002 # CH4 
11 11 1 0.000000 52.190678 45.197601 19.019001 # CH4 
12 12 1 0.000000 52.190678 45.197601 19.519001 # CH4 
13 13 1 0.000000 52.190678 45.197601 20.020000 # CH4 
14 14 1 0.000000 52.190678 45.197601 20.520000 # CH4 
15 15 1 0.000000 52.190678 45.197601 21.021000 # CH4 
16 16 1 0.000000 52.190678 45.197601 21.521000 # CH4 
17 17 1 0.000000 52.190678 45.197601 22.021999 # CH4 
18 18 1 0.000000 52.190678 45.197601 22.521999 # CH4 
19 19 1 0.000000 52.190678 45.197601 23.023001 # CH4 
20 20 1 0.000000 52.190678 45.197601 23.523001 # CH4 
21 21 1 0.000000 52.190678 45.197601 24.024000 # CH4 
22 22 1 0.000000 52.190678 45.197601 24.524000 # CH4 
23 23 1 0.000000 52.190678 45.197601 25.025000 # CH4 
24 24 1 0.000000 52.190678 45.197601 25.525000 # CH4 
25 25 1 0.000000 52.190678 45.197601 26.026001 # CH4 
26 26 1 0.000000 52.190678 45.197601 26.526001 # CH4 
27 27 1 0.000000 52.190678 45.197601 27.027000 # CH4 
28 28 1 0.000000 52.190678 45.197601 0.000000 # CH4 
29 29 1 0.000000 52.190678 45.197601 0.500000 # CH4 
30 30 1 0.000000 52.190678 45.197601 1.001000 # CH4 
31 31 1 0.000000 52.190678 45.197601 1.501000 # CH4 
32 32 1 0.000000 52.190678 45.197601 2.002000 # CH4 
33 33 1 0.000000 52.190678 45.197601 2.502000 # CH4 
34 34 1 0.000000 52.190678 45.197601 3.003000 # CH4 
35 35 1 0.000000 52.190678 45.197601 3.503000 # CH4 
36 36 1 0.000000 52.190678 45.197601 4.004000 # CH4 
37 37 1 0.000000 52.190678 45.197601 4.504000 # CH4 
38 38 1 0.000000 52.190678 45.197601 5.005000 # CH4 
39 39 1 0.000000 52.190678 45.197601 5.505000 # CH4 
40 40 1 0.000000 52.190678 45.197601 6.006000 # CH4 
41 41 1 0.000000 52.190678 45.197601 6.506000 # CH4 
42 42 1 0.000000 52.190678 45.197601 7.007000 # CH4 
43 43 1 0.000000 52.190678 45.197601 7.507000 # CH4 
44 44 1 0.000000 52.190678 45.197601 8.008000 # CH4 
45 45 1 0.000000 52.190678 45.197601 8.508000 # CH4 
46 46 1 0.000000 52.190678 45.197601 9.009000 # CH4 
47 47 1 0.000000 52.190678 45.197601 9.509000 # CH4 
48 48 1 0.000000 52.190678 45.197601 10.010000 # CH4 
49 49 1 0.000000 52.190678 45.197601 10.510000 # CH4 
50 50 1 0.000000 52.190678 45.197601 11.011000 # CH4 
51 51 1 0.000000 52.190678 45.197601 11.511000 # CH4 
52 52 1 0.000000 52.190678 45.197601 12.012000 # CH4 
53 53 1 0.000000 52.190678 45.197601 12.512000 # CH4 
54 54 1 0.000000 52.190678 45.197601 13.013000 # CH4 
55 55 1 0.000000 52.190678 45.197601 13.513000 # CH4 
56 56 1 0.000000 52.190678 22.599600 14.014001 # CH4 
57 57 1 0.000000 52.190678 22.599600 14.514001 # CH4 
58 58 1 0.000000 52.190678 22.599600 15.015000 # CH4 
59 59 1 0.000000 52.190678 22.599600 15.515000 # CH4 
60 60 1 0.000000 52.190678 22.599600 16.016001 # CH4 
61 61 1 0.000000 52.190678 22.599600 16.516001 # CH4 
62 62 1 0.000000 52.190678 22.599600 17.017000 # CH4 
63 63 1 0.000000 52.190678 22.599600 17.517000 # CH4 
64 64 1 0.000000 52.190678 22.599600 18.018002 # CH4 
65 65 1 0.000000 52.190678 22.599600 18.518002 # CH4 
66 66 1 0.000000 52.190678 22.599600 19.019001 # CH4 
67 67 1 0.000000 52.190678 22.599600 19.519001 # CH4 
68 68 1 0.000000 52.190678 22.599600 20.020000 # CH4 
69 69 1 0.000000 52.190678 22.599600 20.520000 # CH4 
70 70 1 0.000000 52.190678 22.599600 21.021000 # CH4 
71 71 1 0.000000 52.190678 22.599600 21.521000 # CH4 
72 72 1 0.000000 52.190678 22.599600 22.021999 # CH4 
73 73 1 0.000000 52.190678 22.599600 22.521999 # CH4 
74 74 1 0.000000 52.190678 22.599600 23.023001 # CH4 
75 75 1 0.000000 52.190678 22.599600 23.523001 # CH4 
76 76 1 0.000000 52.190678 22.599600 24.024000 # CH4 
77 77 1 0.000000 52.190678 22.599600 24.524000 # CH4 
78 78 1 0.000000 52.190678 22.599600 25.025000 # CH4 
79 79 1 0.000000 52.190678 22.599600 25.525000 # CH4 
80 80 1 0.000000 52.190678 22.599600 26.026001 # CH4 
81 81 1 0.000000 52.190678 22.599600 26.526001 # CH4 
82 82 1 0.000000 52.190678 22.599600 27.027000 # CH4 
83 83 1 0.000000 52.190678 22.599600 0.000000 # CH4 
84 84 1 0.000000 52.190678 22.599600 0.500000 # CH4 
85 85 1 0.000000 52.190678 22.599600 1.001000 # CH4 
86 86 1 0.000000 52.190678 22.599600 1.501000 # CH4 
87 87 1 0.000000 52.190678 22.599600 2.002000 # CH4 
88 88 1 0.000000 52.190678 22.599600 2.502000 # CH4 
89 89 1 0.000000 52.190678 22.599600 3.003000 # CH4 
90 90 1 0.000000 52.190678 22.599600 3.503000 # CH4 
91 91 1 0.000000 52.190678 22.599600 4.004000 # CH4 
92 92 1 0.000000 52.190678 22.599600 4.504000 # CH4 
93 93 1 0.000000 52.190678 22.599600 5.005000 # CH4 
94 94 1 0.000000 52.190678 22.599600 5.505000 # CH4 
95 95 1 0.000000 52.190678 22.599600 6.006000 # CH4 
96 96 1 0.000000 52.190678 22.599600 6.506000 # CH4 
97 97 1 0.000000 52.190678 22.599600 7.007000 # CH4 
98 98 1 0.000000 52.190678 22.599600 7.507000 # CH4 
99 99 1 0.000000 52.190678 22.599600 8.008000 # CH4 
100 100 1 0.000000 52.190678 22.599600 8.508000 # CH4 
101 101 1 0.000000 52.190678 22.599600 9.009000 # CH4 
102 102 1 0.000000 52.190678 22.599600 9.509000 # CH4 
103 103 1 0.000000 52.190678 22.599600 10.010000 # CH4 
104 104 1 0.000000 52.190678 22.599600 10.510000 # CH4 
105 105 1 0.000000 52.190678 22.599600 11.011000 # CH4 
106 106 1 0.000000 52.190678 22.599600 11.511000 # CH4 
107 107 1 0.000000 52.190678 22.599600 12.012000 # CH4 
108 108 1 0.000000 52.190678 22.599600 12.512000 # CH4 
109 109 1 0.000000 52.190678 22.599600 13.013000 # CH4 
110 110 1 0.000000 52.190678 22.599600 13.513000 # CH4 
111 111 1 0.000000 26.095676 45.197601 14.014001 # CH4 
112 112 1 0.000000 26.095676 45.197601 14.514001 # CH4 
113 113 1 0.000000 26.095676 45.197601 15.015000 # CH4 
114 114 1 0.000000 26.095676 45.197601 15.515000 # CH4 
115 115 1 0.000000 26.095676 45.197601 16.016001 # CH4 
116 116 1 0.000000 26.095676 45.197601 16.516001 # CH4 
117 117 1 0.000000 26.095676 45.197601 17.017000 # CH4 
118 118 1 0.000000 26.095676 45.197601 17.517000 # CH4 
119 119 1 0.000000 26.095676 45.197601 18.018002 # CH4 
120 120 1 0.000000 26.095676 45.197601 18.518002 # CH4 
121 121 1 0.000000 26.095676 45.197601 19.019001 # CH4 
122 122 1 0.000000 26.095676 45.197601 19.519001 # CH4 
123 123 1 0.000000 26.095676 45.197601 20.020000 # CH4 
124 124 1 0.000000 26.095676 45.197601 20.520000 # CH4 
125 125 1 0.000000 26.095676 45.197601 21.021000 # CH4 
126 126 1 0.000000 26.095676 45.197601 21.521000 # CH4 
127 127 1 0.000000 26.095676 45.197601 22.021999 # CH4 
128 128 1 0.000000 26.095676 45.197601 22.521999 # CH4 
129 129 1 0.000000 26.095676 45.197601 23.023001 # CH4 
130 130 1 0.000000 26.095676 45.197601 23.523001 # CH4 
131 131 1 0.000000 26.095676 45.197601 24.024000 # CH4 
132 132 1 0.000000 26.095676 45.197601 24.524000 # CH4 
133 133 1 0.000000 26.095676 45.197601 25.025000 # CH4 
134 134 1 0.000000 26.095676 45.197601 25.525000 # CH4 
135 135 1 0.000000 26.095676 45.197601 26.026001 # CH4 
136 136 1 0.000000 26.095676 45.197601 26.526001 # CH4 
137 137 1 0.000000 26.095676 45.197601 27.027000 # CH4 
138 138 1 0.000000 26.095676 45.197601 0.000000 # CH4 
139 139 1 0.000000 26.095676 45.197601 0.500000 # CH4 
140 140 1 0.000000 26.095676 45.197601 1.001000 # CH4 
141 141 1 0.000000 26.095676 45.197601 1.501000 # CH4 
142 142 1 0.000000 26.095676 45.197601 2.002000 # CH4 
143 143 1 0.000000 26.095676 45.197601 2.502000 # CH4 
144 144 1 0.000000 26.095676 45.197601 3.003000 # CH4 
145 145 1 0.000000 26.095676 45.197601 3.503000 # CH4 
146 146 1 0.000000 26.095676 45.197601 4.004000 # CH4 
147 147 1 0.000000 26.095676 45.197601 4.504000 # CH4 
148 148 1 0.000000 26.095676 45.197601 5.005000 # CH4 
149 149 1 0.000000 26.095676 45.197601 5.505000 # CH4 
150 150 1 0.000000 26.095676 45.197601 6.006000 # CH4 
151 151 1 0.000000 26.095676 45.197601 6.506000 # CH4 
152 152 1 0.000000 26.095676 45.197601 7.007000 # CH4 
153 153 1 0.000000 26.095676 45.197601 7.507000 # CH4 
154 154 1 0.000000 26.095676 45.197601 8.008000 # CH4 
155 155 1 0.000000 26.095676 45.197601 8.508000 # CH4 
156 156 1 0.000000 26.095676 45.197601 9.009000 # CH4 
157 157 1 0.000000 26.095676 45.197601 9.509000 # CH4 
158 158 1 0.000000 26.095676 45.197601 10.010000 # CH4 
159 159 1 0.000000 26.095676 45.197601 10.510000 # CH4 
160 160 1 0.000000 26.095676 45.197601 11.011000 # CH4 
161 161 1 0.000000 26.095676 45.197601 11.511000 # CH4 
162 162 1 0.000000 26.095676 45.197601 12.012000 # CH4 
163 163 1 0.000000 26.095676 45.197601 12.512000 # CH4 
164 164 1 0.000000 26.095676 45.197601 13.013000 # CH4 
165 165 1 0.000000 26.095676 45.197601 13.513000 # CH4 
166 166 1 0.000000 26.095676 22.599600 14.014001 # CH4 
167 167 1 0.000000 26.095676 22.599600 14.514001 # CH4 
168 168 1 0.000000 26.095676 22.599600 15.015000 # CH4 
169 169 1 0.000000 26.095676 22.599600 15.515000 # CH4 
170 170 1 0.000000 26.095676 22.599600 16.016001 # CH4 
171 171 1 0.000000 26.095676 22.599600 16.516001 # CH4 
172 172 1 0.000000 26.095676 22.599600 17.017000 # CH4 
173 173 1 0.000000 26.095676 22.599600 17.517000 # CH4 
174 174 1 0.000000 26.095676 22.599600 18.018002 # CH4 
175 175 1 0.000000 26.095676 22.599600 18.518002 # CH4 
176 176 1 0.000000 26.095676 22.599600 19.019001 # CH4 
177 177 1 0.000000 26.095676 22.599600 19.519001 # CH4 
178 178 1 0.000000 26.095676 22.599600 20.020000 # CH4 
179 179 1 0.000000 26.095676 22.599600 20.520000 # CH4 
180 180 1 0.000000 26.095676 22.599600 21.021000 # CH4 
181 181 1 0.000000 26.095676 22.599600 21.521000 # CH4 
182 182 1 0.000000 26.095676 22.599600 22.021999 # CH4 
183 183 1 0.000000 26.095676 22.599600 22.521999 # CH4 
184 184 1 0.000000 26.095676 22.599600 23.023001 # CH4 
185 185 1 0.000000 26.095676 22.599600 23.523001 # CH4 
186 186 1 0.000000 26.095676 22.599600 24.024000 # CH4 
187 187 1 0.000000 26.095676 22.599600 24.524000 # CH4 
188 188 1 0.000000 26.095676 22.599600 25.025000 # CH4 
189 189 1 0.000000 26.095676 22.599600 25.525000 # CH4 
190 190 1 0.000000 26.095676 22.599600 26.026001 # CH4 
191 191 1 0.000000 26.095676 22.599600 26.526001 # CH4 
192 192 1 0.000000 26.095676 22.599600 27.027000 # CH4 
193 193 1 0.000000 26.095676 22.599600 0.000000 # CH4 
194 194 1 0.000000 26.095676 22.599600 0.500000 # CH4 
195 195 1 0.000000 26.095676 22.599600 1.001000 # CH4 
196 196 1 0.000000 26.095676 22.599600 1.501000 # CH4 
197 197 1 0.000000 26.095676 22.599600 2.002000 # CH4 
198 198 1 0.000000 26.095676 22.599600 2.502000 # CH4 
199 199 1 0.000000 26.095676 22.599600 3.003000 # CH4 
200 200 1 0.000000 26.095676 22.599600 3.503000 # CH4 
201 201 1 0.000000 26.095676 22.599600 4.004000 # CH4 
202 202 1 0.000000 26.095676 22.599600 4.504000 # CH4 
203 203 1 0.000000 26.095676 22.599600 5.005000 # CH4 
204 204 1 0.000000 26.095676 22.599600 5.505000 # CH4 
205 205 1 0.000000 26.095676 22.599600 6.006000 # CH4 
206 206 1 0.000000 26.095676 22.599600 6.506000 # CH4 
207 207 1 0.000000 26.095676 22.599600 7.007000 # CH4 
208 208 1 0.000000 26.095676 22.599600 7.507000 # CH4 
209 209 1 0.000000 26.095676 22.599600 8.008000 # CH4 
210 210 1 0.000000 26.095676 22.599600 8.508000 # CH4 
211 211 1 0.000000 26.095676 22.599600 9.009000 # CH4 
212 212 1 0.000000 26.095676 22.599600 9.509000 # CH4 
213 213 1 0.000000 26.095676 22.599600 10.010000 # CH4 
214 214 1 0.000000 26.095676 22.599600 10.510000 # CH4 
215 215 1 0.000000 26.095676 22.599600 11.011000 # CH4 
216 216 1 0.000000 26.095676 22.599600 11.511000 # CH4 
217 217 1 0.000000 26.095676 22.599600 12.012000 # CH4 
218 218 10 0.000000 5.331000 7.994000 21.569241 # Zn LIG
219 218 10 0.000000 18.378000 30.594000 21.569241 # Zn LIG
220 218 10 0.000000 31.426001 7.994000 21.569241 # Zn LIG
221 218 10 0.000000 44.473999 30.594000 21.569241 # Zn LIG
222 218 2 0.000000 5.724000 9.170000 18.988241 # Ca LIG
223 218 2 0.000000 18.771999 31.768999 18.988241 # Ca LIG
224 218 2 0.000000 31.819000 9.170000 18.988241 # Ca LIG
225 218 2 0.000000 44.867001 31.768999 18.988241 # Ca LIG
226 218 3 0.000000 6.104000 10.244000 18.040241 # Cb LIG
227 218 3 0.000000 19.150999 32.842999 18.040241 # Cb LIG
228 218 3 0.000000 32.199001 10.244000 18.040241 # Cb LIG
229 218 3 0.000000 45.247002 32.842999 18.040241 # Cb LIG
230 218 5 0.000000 6.937000 11.262000 18.520241 # Cd LIG
231 218 5 0.000000 19.983999 33.861000 18.520241 # Cd LIG
232 218 5 0.000000 33.032001 11.262000 18.520241 # Cd LIG
233 218 5 0.000000 46.080002 33.861000 18.520241 # Cd LIG
234 218 6 0.000000 7.258000 11.221000 19.558241 # H LIG
235 218 6 0.000000 20.306000 33.820000 19.558241 # H LIG
236 218 6 0.000000 33.353001 11.221000 19.558241 # H LIG
237 218 6 0.000000 46.401001 33.820000 19.558241 # H LIG
238 218 8 0.000000 6.191000 9.168000 20.176241 # Ob LIG
239 218 8 0.000000 19.238001 31.767000 20.176241 # Ob LIG
240 218 8 0.000000 32.285999 9.168000 20.176241 # Ob LIG
241 218 8 0.000000 45.334000 31.767000 20.176241 # Ob LIG
242 218 7 0.000000 4.915000 8.263000 18.567242 # Oa LIG
243 218 7 0.000000 17.962999 30.862000 18.567242 # Oa LIG
244 218 7 0.000000 31.010000 8.263000 18.567242 # Oa LIG
245 218 7 0.000000 44.057999 30.862000 18.567242 # Oa LIG
246 218 9 0.000000 8.191000 13.251000 18.306240 # Oc LIG
247 218 9 0.000000 21.238001 35.849998 18.306240 # Oc LIG
248 218 9 0.000000 34.285999 13.251000 18.306240 # Oc LIG
249 218 9 0.000000 47.334000 35.849998 18.306240 # Oc LIG
250 218 10 0.000000 4.258000 6.452000 19.275242 # Zn LIG
251 218 10 0.000000 17.306000 29.052000 19.275242 # Zn LIG
252 218 10 0.000000 30.353001 6.452000 19.275242 # Zn LIG
253 218 10 0.000000 43.401001 29.052000 19.275242 # Zn LIG
254 218 10 0.000000 3.459000 8.152000 23.863241 # Zn LIG
255 218 10 0.000000 16.507000 30.750999 23.863241 # Zn LIG
256 218 10 0.000000 29.554001 8.152000 23.863241 # Zn LIG
257 218 10 0.000000 42.602001 30.750999 23.863241 # Zn LIG
258 218 10 0.000000 7.717000 14.605000 19.721241 # Zn LIG
259 218 10 0.000000 20.764999 37.203999 19.721241 # Zn LIG
260 218 10 0.000000 33.812000 14.605000 19.721241 # Zn LIG
261 218 10 0.000000 46.860001 37.203999 19.721241 # Zn LIG
262 218 7 0.000000 4.698000 6.678000 23.155241 # Oa LIG
263 218 7 0.000000 17.746000 29.277000 23.155241 # Oa LIG
264 218 7 0.000000 30.794001 6.678000 23.155241 # Oa LIG
265 218 7 0.000000 43.841000 29.277000 23.155241 # Oa LIG
266 218 7 0.000000 3.434000 7.658000 20.861240 # Oa LIG
267 218 7 0.000000 16.482000 30.257000 20.861240 # Oa LIG
268 218 7 0.000000 29.530001 7.658000 20.861240 # Oa LIG
269 218 7 0.000000 42.577000 30.257000 20.861240 # Oa LIG
270 218 9 0.000000 4.857000 9.348000 22.984241 # Oc LIG
271 218 9 0.000000 17.905001 31.947001 22.984241 # Oc LIG
272 218 9 0.000000 30.952000 9.348000 22.984241 # Oc LIG
273 218 9 0.000000 44.000000 31.947001 22.984241 # Oc LIG
274 218 9 0.000000 5.667000 6.186000 20.690241 # Oc LIG
275 218 9 0.000000 18.715000 28.785000 20.690241 # Oc LIG
276 218 9 0.000000 31.763000 6.186000 20.690241 # Oc LIG
277 218 9 0.000000 44.810001 28.785000 20.690241 # Oc LIG
278 218 4 0.000000 5.670000 10.272000 23.559240 # Cc LIG
279 218 4 0.000000 18.718000 32.870998 23.559240 # Cc LIG
280 218 4 0.000000 31.764999 10.272000 23.559240 # Cc LIG
281 218 4 0.000000 44.813000 32.870998 23.559240 # Cc LIG
282 218 2 0.000000 7.324000 13.429000 22.302240 # Ca LIG
283 218 2 0.000000 20.371000 36.028000 22.302240 # Ca LIG
284 218 2 0.000000 33.418999 13.429000 22.302240 # Ca LIG
285 218 2 0.000000 46.466999 36.028000 22.302240 # Ca LIG
286 218 3 0.000000 6.944000 12.355000 23.250240 # Cb LIG
287 218 3 0.000000 19.992001 34.953999 23.250240 # Cb LIG
288 218 3 0.000000 33.039001 12.355000 23.250240 # Cb LIG
289 218 3 0.000000 46.087002 34.953999 23.250240 # Cb LIG
290 218 4 0.000000 7.378000 12.327000 17.730240 # Cc LIG
291 218 4 0.000000 20.424999 34.925999 17.730240 # Cc LIG
292 218 4 0.000000 33.473000 12.327000 17.730240 # Cc LIG
293 218 4 0.000000 46.521000 34.925999 17.730240 # Cc LIG
294 218 5 0.000000 6.111000 11.337000 22.770241 # Cd LIG
295 218 5 0.000000 19.159000 33.936001 22.770241 # Cd LIG
296 218 5 0.000000 32.206001 11.337000 22.770241 # Cd LIG
297 218 5 0.000000 45.254002 33.936001 22.770241 # Cd LIG
298 218 6 0.000000 5.790000 11.379000 21.732241 # H LIG
299 218 6 0.000000 18.837000 33.978001 21.732241 # H LIG
300 218 6 0.000000 31.885000 11.379000 21.732241 # H LIG
301 218 6 0.000000 44.932999 33.978001 21.732241 # H LIG
302 218 8 0.000000 6.857000 13.431000 21.113241 # Ob LIG
303 218 8 0.000000 19.905001 36.029999 21.113241 # Ob LIG
304 218 8 0.000000 32.952000 13.431000 21.113241 # Ob LIG
305 218 8 0.000000 46.000000 36.029999 21.113241 # Ob LIG
306 218 7 0.000000 8.133000 14.336000 22.723240 # Oa LIG
307 218 7 0.000000 21.180000 36.936001 22.723240 # Oa LIG
308 218 7 0.000000 34.228001 14.336000 22.723240 # Oa LIG
309 218 7 0.000000 47.276001 36.936001 22.723240 # Oa LIG
310 218 10 0.000000 8.790000 16.146999 22.015240 # Zn LIG
311 218 10 0.000000 21.837000 38.745998 22.015240 # Zn LIG
312 218 10 0.000000 34.884998 16.146999 22.015240 # Zn LIG
313 218 10 0.000000 47.932999 38.745998 22.015240 # Zn LIG
314 218 10 0.000000 9.589000 14.447000 17.427240 # Zn LIG
315 218 10 0.000000 22.636000 37.046001 17.427240 # Zn LIG
316 218 10 0.000000 35.683998 14.447000 17.427240 # Zn LIG
317 218 10 0.000000 48.731998 37.046001 17.427240 # Zn LIG
318 218 7 0.000000 8.349000 15.921000 18.135241 # Oa LIG
319 218 7 0.000000 21.396999 38.520000 18.135241 # Oa LIG
320 218 7 0.000000 34.445000 15.921000 18.135241 # Oa LIG
321 218 7 0.000000 47.492001 38.520000 18.135241 # Oa LIG
322 218 7 0.000000 9.613000 14.941000 20.429241 # Oa LIG
323 218 7 0.000000 22.660999 37.540001 20.429241 # Oa LIG
324 218 7 0.000000 35.709000 14.941000 20.429241 # Oa LIG
325 218 7 0.000000 48.756001 37.540001 20.429241 # Oa LIG
326 218 9 0.000000 7.380000 16.413000 20.600241 # Oc LIG
327 218 9 0.000000 20.427999 39.013000 20.600241 # Oc LIG
328 218 9 0.000000 33.476002 16.413000 20.600241 # Oc LIG
329 218 9 0.000000 46.522999 39.013000 20.600241 # Oc LIG
330 218 10 0.000000 8.790000 31.212999 19.721241 # Zn LIG
331 218 10 0.000000 21.837000 8.614000 19.721241 # Zn LIG
332 218 10 0.000000 34.884998 31.212999 19.721241 # Zn LIG
333 218 10 0.000000 47.932999 8.614000 19.721241 # Zn LIG
334 218 10 0.000000 9.589000 29.513000 22.015240 # Zn LIG
335 218 10 0.000000 22.636000 6.914000 22.015240 # Zn LIG
336 218 10 0.000000 35.683998 29.513000 22.015240 # Zn LIG
337 218 10 0.000000 48.731998 6.914000 22.015240 # Zn LIG
338 218 7 0.000000 9.613000 30.007000 18.135241 # Oa LIG
339 218 7 0.000000 22.660999 7.408000 18.135241 # Oa LIG
340 218 7 0.000000 35.709000 30.007000 18.135241 # Oa LIG
341 218 7 0.000000 48.756001 7.408000 18.135241 # Oa LIG
342 218 7 0.000000 8.349000 30.987000 22.723240 # Oa LIG
343 218 7 0.000000 21.396999 8.388000 22.723240 # Oa LIG
344 218 7 0.000000 34.445000 30.987000 22.723240 # Oa LIG
345 218 7 0.000000 47.492001 8.388000 22.723240 # Oa LIG
346 218 7 0.000000 4.698000 21.743999 20.861240 # Oa LIG
347 218 7 0.000000 17.746000 44.342999 20.861240 # Oa LIG
348 218 7 0.000000 30.794001 21.743999 20.861240 # Oa LIG
349 218 7 0.000000 43.841000 44.342999 20.861240 # Oa LIG
350 218 9 0.000000 5.667000 21.252001 18.396240 # Oc LIG
351 218 9 0.000000 18.715000 43.851002 18.396240 # Oc LIG
352 218 9 0.000000 31.763000 21.252001 18.396240 # Oc LIG
353 218 9 0.000000 44.810001 43.851002 18.396240 # Oc LIG
354 218 10 0.000000 4.258000 21.518000 23.863241 # Zn LIG
355 218 10 0.000000 17.306000 44.118000 23.863241 # Zn LIG
356 218 10 0.000000 30.353001 21.518000 23.863241 # Zn LIG
357 218 10 0.000000 43.401001 44.118000 23.863241 # Zn LIG
358 218 10 0.000000 8.790000 1.081000 17.427240 # Zn LIG
359 218 10 0.000000 21.837000 23.680000 17.427240 # Zn LIG
360 218 10 0.000000 34.884998 1.081000 17.427240 # Zn LIG
361 218 10 0.000000 47.932999 23.680000 17.427240 # Zn LIG
362 218 7 0.000000 8.349000 0.855000 20.429241 # Oa LIG
363 218 7 0.000000 21.396999 23.454000 20.429241 # Oa LIG
364 218 7 0.000000 34.445000 0.855000 20.429241 # Oa LIG
365 218 7 0.000000 47.492001 23.454000 20.429241 # Oa LIG
366 218 9 0.000000 7.380000 1.347000 22.894241 # Oc LIG
367 218 9 0.000000 20.427999 23.947001 22.894241 # Oc LIG
368 218 9 0.000000 33.476002 1.347000 22.894241 # Oc LIG
369 218 9 0.000000 46.522999 23.947001 22.894241 # Oc LIG
370 218 9 0.000000 4.857000 39.480000 18.396240 # Oc LIG
371 218 9 0.000000 17.905001 16.881001 18.396240 # Oc LIG
372 218 9 0.000000 30.952999 39.480000 18.396240 # Oc LIG
373 218 9 0.000000 44.000000 16.881001 18.396240 # Oc LIG
374 218 10 0.000000 5.331000 38.126999 23.863241 # Zn LIG
375 218 10 0.000000 18.378000 15.527000 23.863241 # Zn LIG
376 218 10 0.000000 31.426001 38.126999 23.863241 # Zn LIG
377 218 10 0.000000 44.473999 15.527000 23.863241 # Zn LIG
378 218 2 0.000000 5.724000 39.301998 21.282242 # Ca LIG
379 218 2 0.000000 18.771999 16.702999 21.282242 # Ca LIG
380 218 2 0.000000 31.819000 39.301998 21.282242 # Ca LIG
381 218 2 0.000000 44.867001 16.702999 21.282242 # Ca LIG
382 218 3 0.000000 6.104000 40.375999 20.334240 # Cb LIG
383 218 3 0.000000 19.150999 17.777000 20.334240 # Cb LIG
384 218 3 0.000000 32.199001 40.375999 20.334240 # Cb LIG
385 218 3 0.000000 45.247002 17.777000 20.334240 # Cb LIG
386 218 4 0.000000 5.670000 40.403999 18.972240 # Cc LIG
387 218 4 0.000000 18.718000 17.805000 18.972240 # Cc LIG
388 218 4 0.000000 31.764999 40.403999 18.972240 # Cc LIG
389 218 4 0.000000 44.813000 17.805000 18.972240 # Cc LIG
390 218 5 0.000000 6.937000 41.394001 20.814240 # Cd LIG
391 218 5 0.000000 19.983999 18.795000 20.814240 # Cd LIG
392 218 5 0.000000 33.032001 41.394001 20.814240 # Cd LIG
393 218 5 0.000000 46.080002 18.795000 20.814240 # Cd LIG
394 218 6 0.000000 7.258000 41.353001 21.852242 # H LIG
395 218 6 0.000000 20.306000 18.754000 21.852242 # H LIG
396 218 6 0.000000 33.353001 41.353001 21.852242 # H LIG
397 218 6 0.000000 46.401001 18.754000 21.852242 # H LIG
398 218 8 0.000000 6.191000 39.299999 22.470242 # Ob LIG
399 218 8 0.000000 19.238001 16.701000 22.470242 # Ob LIG
400 218 8 0.000000 32.285999 39.299999 22.470242 # Ob LIG
401 218 8 0.000000 45.334000 16.701000 22.470242 # Ob LIG
402 218 7 0.000000 4.915000 38.395000 20.861240 # Oa LIG
403 218 7 0.000000 17.962999 15.796000 20.861240 # Oa LIG
404 218 7 0.000000 31.010000 38.395000 20.861240 # Oa LIG
405 218 7 0.000000 44.057999 15.796000 20.861240 # Oa LIG
406 218 3 0.000000 6.944000 42.487000 18.662241 # Cb LIG
407 218 3 0.000000 19.992001 19.888000 18.662241 # Cb LIG
408 218 3 0.000000 33.039001 42.487000 18.662241 # Cb LIG
409 218 3 0.000000 46.087002 19.888000 18.662241 # Cb LIG
410 218 4 0.000000 7.378000 42.459000 20.024240 # Cc LIG
411 218 4 0.000000 20.424999 19.860001 20.024240 # Cc LIG
412 218 4 0.000000 33.473000 42.459000 20.024240 # Cc LIG
413 218 4 0.000000 46.521000 19.860001 20.024240 # Cc LIG
414 218 5 0.000000 6.111000 41.469002 18.182240 # Cd LIG
415 218 5 0.000000 19.159000 18.870001 18.182240 # Cd LIG
416 218 5 0.000000 32.206001 41.469002 18.182240 # Cd LIG
417 218 5 0.000000 45.254002 18.870001 18.182240 # Cd LIG
418 218 7 0.000000 8.133000 44.469002 18.135241 # Oa LIG
419 218 7 0.000000 21.180000 21.868999 18.135241 # Oa LIG
420 218 7 0.000000 34.228001 44.469002 18.135241 # Oa LIG
421 218 7 0.000000 47.276001 21.868999 18.135241 # Oa LIG
422 218 9 0.000000 8.191000 43.382999 20.600241 # Oc LIG
423 218 9 0.000000 21.238001 20.784000 20.600241 # Oc LIG
424 218 9 0.000000 34.285999 43.382999 20.600241 # Oc LIG
425 218 9 0.000000 47.334000 20.784000 20.600241 # Oc LIG
426 218 10 0.000000 7.717000 44.737000 22.015240 # Zn LIG
427 218 10 0.000000 20.764999 22.138000 22.015240 # Zn LIG
428 218 10 0.000000 33.812000 44.737000 22.015240 # Zn LIG
429 218 10 0.000000 46.860001 22.138000 22.015240 # Zn LIG
430 218 10 0.000000 9.589000 44.578999 19.721241 # Zn LIG
431 218 10 0.000000 22.636000 21.980000 19.721241 # Zn LIG
432 218 10 0.000000 35.683998 44.578999 19.721241 # Zn LIG
433 218 10 0.000000 48.731998 21.980000 19.721241 # Zn LIG
434 218 9 0.000000 5.667000 36.318001 22.984241 # Oc LIG
435 218 9 0.000000 18.715000 13.719000 22.984241 # Oc LIG
436 218 9 0.000000 31.763000 36.318001 22.984241 # Oc LIG
437 218 9 0.000000 44.810001 13.719000 22.984241 # Oc LIG
438 218 2 0.000000 7.324000 43.561001 17.714241 # Ca LIG
439 218 2 0.000000 20.371000 20.962000 17.714241 # Ca LIG
440 218 2 0.000000 33.418999 43.561001 17.714241 # Ca LIG
441 218 2 0.000000 46.466999 20.962000 17.714241 # Ca LIG
442 218 8 0.000000 6.857000 43.563999 23.407242 # Ob LIG
443 218 8 0.000000 19.905001 20.964001 23.407242 # Ob LIG
444 218 8 0.000000 32.952000 43.563999 23.407242 # Ob LIG
445 218 8 0.000000 46.000000 20.964001 23.407242 # Ob LIG
446 218 7 0.000000 9.613000 45.073002 22.723240 # Oa LIG
447 218 7 0.000000 22.660999 22.474001 22.723240 # Oa LIG
448 218 7 0.000000 35.709000 45.073002 22.723240 # Oa LIG
449 218 7 0.000000 48.756001 22.474001 22.723240 # Oa LIG
450 218 10 0.000000 3.459000 38.285000 19.275242 # Zn LIG
451 218 10 0.000000 16.507000 15.685000 19.275242 # Zn LIG
452 218 10 0.000000 29.554001 38.285000 19.275242 # Zn LIG
453 218 10 0.000000 42.602001 15.685000 19.275242 # Zn LIG
454 218 7 0.000000 4.698000 36.810001 18.567242 # Oa LIG
455 218 7 0.000000 17.746000 14.211000 18.567242 # Oa LIG
456 218 7 0.000000 30.794001 36.810001 18.567242 # Oa LIG
457 218 7 0.000000 43.841000 14.211000 18.567242 # Oa LIG
458 218 10 0.000000 4.258000 36.584999 21.569241 # Zn LIG
459 218 10 0.000000 17.306000 13.985000 21.569241 # Zn LIG
460 218 10 0.000000 30.353001 36.584999 21.569241 # Zn LIG
461 218 10 0.000000 43.401001 13.985000 21.569241 # Zn LIG
462 218 7 0.000000 3.434000 37.790001 23.155241 # Oa LIG
463 218 7 0.000000 16.482000 15.191000 23.155241 # Oa LIG
464 218 7 0.000000 29.530001 37.790001 23.155241 # Oa LIG
465 218 7 0.000000 42.577000 15.191000 23.155241 # Oa LIG
466 218 9 0.000000 2.523000 22.131001 22.984241 # Oc LIG
467 218 9 0.000000 15.571000 44.730999 22.984241 # Oc LIG
468 218 9 0.000000 28.618999 22.131001 22.984241 # Oc LIG
469 218 9 0.000000 41.666000 44.730999 22.984241 # Oc LIG
470 218 4 0.000000 1.317000 22.372999 23.559240 # Cc LIG
471 218 4 0.000000 14.364000 44.972000 23.559240 # Cc LIG
472 218 4 0.000000 27.412001 22.372999 23.559240 # Cc LIG
473 218 4 0.000000 40.459999 44.972000 23.559240 # Cc LIG
474 218 2 0.000000 10.803000 44.826000 22.302240 # Ca LIG
475 218 2 0.000000 23.851000 22.226999 22.302240 # Ca LIG
476 218 2 0.000000 36.898998 44.826000 22.302240 # Ca LIG
477 218 2 0.000000 49.945999 22.226999 22.302240 # Ca LIG
478 218 3 0.000000 11.923000 45.034000 23.250240 # Cb LIG
479 218 3 0.000000 24.971001 22.434999 23.250240 # Cb LIG
480 218 3 0.000000 38.019001 45.034000 23.250240 # Cb LIG
481 218 3 0.000000 51.066002 22.434999 23.250240 # Cb LIG
482 218 5 0.000000 0.174000 22.223000 22.770241 # Cd LIG
483 218 5 0.000000 13.222000 44.821999 22.770241 # Cd LIG
484 218 5 0.000000 26.268999 22.223000 22.770241 # Cd LIG
485 218 5 0.000000 39.317001 44.821999 22.770241 # Cd LIG
486 218 6 0.000000 0.299000 21.924000 21.732241 # H LIG
487 218 6 0.000000 13.346000 44.522999 21.732241 # H LIG
488 218 6 0.000000 26.393999 21.924000 21.732241 # H LIG
489 218 6 0.000000 39.442001 44.522999 21.732241 # H LIG
490 218 8 0.000000 11.035000 44.421001 21.113241 # Ob LIG
491 218 8 0.000000 24.083000 21.822001 21.113241 # Ob LIG
492 218 8 0.000000 37.130001 44.421001 21.113241 # Ob LIG
493 218 8 0.000000 50.178001 21.822001 21.113241 # Ob LIG
494 218 4 0.000000 6.061000 35.152000 23.559240 # Cc LIG
495 218 4 0.000000 19.108999 12.553000 23.559240 # Cc LIG
496 218 4 0.000000 32.155998 35.152000 23.559240 # Cc LIG
497 218 4 0.000000 45.203999 12.553000 23.559240 # Cc LIG
498 218 2 0.000000 7.968000 32.140999 22.302240 # Ca LIG
499 218 2 0.000000 21.016001 9.542000 22.302240 # Ca LIG
500 218 2 0.000000 34.063999 32.140999 22.302240 # Ca LIG
501 218 2 0.000000 47.111000 9.542000 22.302240 # Ca LIG
502 218 3 0.000000 7.228000 33.007000 23.250240 # Cb LIG
503 218 3 0.000000 20.275999 10.408000 23.250240 # Cb LIG
504 218 3 0.000000 33.323002 33.007000 23.250240 # Cb LIG
505 218 3 0.000000 46.370998 10.408000 23.250240 # Cb LIG
506 218 5 0.000000 6.763000 34.237000 22.770241 # Cd LIG
507 218 5 0.000000 19.809999 11.638000 22.770241 # Cd LIG
508 218 5 0.000000 32.858002 34.237000 22.770241 # Cd LIG
509 218 5 0.000000 45.905998 11.638000 22.770241 # Cd LIG
510 218 6 0.000000 6.959000 34.494999 21.732241 # H LIG
511 218 6 0.000000 20.007000 11.896000 21.732241 # H LIG
512 218 6 0.000000 33.055000 34.494999 21.732241 # H LIG
513 218 6 0.000000 46.102001 11.896000 21.732241 # H LIG
514 218 8 0.000000 8.203000 32.543999 21.113241 # Ob LIG
515 218 8 0.000000 21.250999 9.945000 21.113241 # Ob LIG
516 218 8 0.000000 34.299000 32.543999 21.113241 # Ob LIG
517 218 8 0.000000 47.346001 9.945000 21.113241 # Ob LIG
518 218 9 0.000000 10.524000 30.600000 20.600241 # Oc LIG
519 218 9 0.000000 23.572001 8.001000 20.600241 # Oc LIG
520 218 9 0.000000 36.619999 30.600000 20.600241 # Oc LIG