LAMMPS data file via write_data, version 30 Jul 2016, timestep = 10000

1379 atoms
10 atom types

0.0000000000000000e+00 2.6114000000000001e+01 xlo xhi
0.0000000000000000e+00 4.5229999999999997e+01 ylo yhi
0.0000000000000000e+00 2.7667000000000002e+01 zlo zhi

Masses

1 16.04
2 12.011
3 12.011
4 12.011
5 12.011
6 1.008
7 24.305
8 15.999
9 15.999
10 15.999

Pair Coeffs # soft

1 20
2 20
3 20
4 20
5 20
6 20
7 20
8 20
9 20
10 20

Atoms # full

1 1 1 0.0000000000000000e+00 2.3183668142946281e+01 4.2545816201127778e+01 7.6734054074409288e+00 0 0 0
2 2 1 0.0000000000000000e+00 2.3584633512843151e+01 2.2242935084155979e-01 8.8049310247056378e-01 0 1 1
3 3 1 0.0000000000000000e+00 2.8810665500800847e+00 4.3984824312768659e+01 2.1775737227507076e+01 1 0 0
4 4 1 0.0000000000000000e+00 4.1363209348915064e-01 4.2373970880512509e+01 5.8109614742658460e+00 1 0 1
5 5 1 0.0000000000000000e+00 2.4378930459382435e+01 4.1764958277188789e+01 2.6612639406900144e+01 0 0 0
6 6 1 0.0000000000000000e+00 1.1921773350353879e+00 2.2248112364415245e+00 2.1960304654509113e+01 1 1 0
7 7 1 0.0000000000000000e+00 1.4474752408981117e+00 6.9582791315672188e-01 2.6300141918013910e+01 1 1 0
8 8 1 0.0000000000000000e+00 2.5023398689834750e+01 4.2303838067620177e+01 2.2737669248815973e+01 0 0 0
9 9 1 0.0000000000000000e+00 1.3274621259172075e+00 1.7679213087568695e+00 1.5960023188544186e+01 1 1 1
10 10 1 0.0000000000000000e+00 2.3376730100340648e+01 9.6851424347150006e-01 1.5332269433348701e+01 0 1 1
11 11 1 0.0000000000000000e+00 2.0594396733260734e+00 4.3389606155806476e+01 3.3291100705955672e+00 1 0 0
12 12 1 0.0000000000000000e+00 2.3778632709207894e+00 9.8092068596314386e-01 5.5424033174318419e+00 1 1 0
13 13 1 0.0000000000000000e+00 2.5093750292830251e+01 1.7963939739945836e+00 2.3811251720445632e+01 0 1 -1
14 14 1 0.0000000000000000e+00 2.5436539364799359e+01 4.1166447471607590e+01 1.1377639075116994e+01 0 0 0
15 15 1 0.0000000000000000e+00 2.4469577411799229e+01 4.1588506296430182e+01 1.9789977099753411e+01 0 0 -1
16 16 1 0.0000000000000000e+00 2.5902461513267095e+01 4.4644302651111623e+01 1.1158893302842145e+01 0 0 0
17 17 1 0.0000000000000000e+00 1.5716555228771669e+00 4.2460955608057930e+01 1.4341769969300634e+01 1 0 0
18 18 1 0.0000000000000000e+00 2.4928538865920022e+01 7.5635384778792947e-01 3.8952789876791361e+00 0 1 0
19 19 1 0.0000000000000000e+00 2.2630518110261157e+01 1.6927708331333198e+00 2.0862717523009721e+01 0 1 0
20 20 1 0.0000000000000000e+00 2.4823240155890247e+01 2.2211159382382135e+00 1.9102186181594810e+01 0 1 0
21 21 1 0.0000000000000000e+00 2.5255381095956078e+01 1.8673418963949429e+00 8.1002640597193203e+00 0 1 0
22 22 1 0.0000000000000000e+00 2.2017696590609244e+01 2.8495967984634188e+01 2.4271061684263493e+01 0 0 0
23 23 1 0.0000000000000000e+00 2.6908802839968056e+00 2.9753319108393221e+01 8.6609406070895389e-01 1 0 0
24 24 1 0.0000000000000000e+00 2.3058197081030745e+01 1.6058617196235524e+01 2.7064605053161419e+01 0 0 0
25 25 1 0.0000000000000000e+00 5.0537466768716399e-03 1.7750633667744339e+01 2.3625291220527942e+01 1 0 0
26 26 1 0.0000000000000000e+00 2.4958440854255365e+01 1.3487315267612056e+01 1.9361975083933753e+01 0 0 -1
27 27 1 0.0000000000000000e+00 8.3056119650567461e-01 3.0482910739810972e+01 2.1424456333101116e+01 1 0 0
28 28 1 0.0000000000000000e+00 2.3028963265329740e+01 3.1434073422850602e+01 1.0080158219423593e+01 0 0 0
29 29 1 0.0000000000000000e+00 2.2122463122843406e+01 1.6004732860182109e+01 2.5009552594248268e+00 0 0 1
30 30 1 0.0000000000000000e+00 2.5826120364112857e+01 1.7408879765754737e+01 1.2570097423495797e+01 0 0 2
31 31 1 0.0000000000000000e+00 2.3872858434215093e+01 1.6738309049336443e+01 1.4058876410958048e+01 0 0 0
32 32 1 0.0000000000000000e+00 2.1726531039733938e+01 1.4097109917688691e+01 6.1225718644374298e+00 0 0 0
33 33 1 0.0000000000000000e+00 2.3832765342132781e+01 2.9279034412733040e+01 2.1601046073041563e+00 0 0 0
34 34 1 0.0000000000000000e+00 2.4280673712343123e+01 3.2869713464789839e+01 1.1519895280330219e+01 0 0 -2
35 35 1 0.0000000000000000e+00 2.3880847147028096e+01 2.9373559221979932e+01 1.9247172994231804e+01 0 0 -1
36 36 1 0.0000000000000000e+00 6.9405019677710578e-01 1.3820707638562370e+01 4.6293781740207303e+00 1 0 0
37 37 1 0.0000000000000000e+00 2.5668640932448575e+01 1.1679675513094969e+01 7.0200157782758339e+00 0 0 0
38 38 1 0.0000000000000000e+00 7.6073376906343526e-02 3.3060002914424992e+01 7.1820209560665651e+00 1 0 -1
39 39 1 0.0000000000000000e+00 1.3275172759530170e+01 1.9653834584934899e+01 2.6997170764358557e+01 1 0 -1
40 40 1 0.0000000000000000e+00 8.6045798519320604e-01 1.1903855909812316e+01 4.1658227171334267e-01 1 0 2
41 41 1 0.0000000000000000e+00 2.2456379565815666e+01 1.7604709112736174e+01 9.8022897463569709e+00 0 0 0
42 42 1 0.0000000000000000e+00 1.1949827416626315e+00 2.6875855387011367e+01 2.1475127069473164e+01 1 0 -1
43 43 1 0.0000000000000000e+00 1.4314858682463852e+01 8.4041677264128207e+00 1.2809215119260433e+00 0 1 1
44 44 1 0.0000000000000000e+00 1.2728833111673795e+01 6.6109168567629659e+00 2.1238326170441240e+01 0 1 -1
45 45 1 0.0000000000000000e+00 1.2655190884634411e+01 3.8725448249352695e+01 1.0810569336213364e+01 0 0 0
46 46 1 0.0000000000000000e+00 1.0618174085044100e+01 9.0822486451603339e+00 2.1334826812739585e+01 0 1 -1
47 47 1 0.0000000000000000e+00 1.0595415786242530e+01 4.5238314690931745e+00 1.5311860970349640e+01 0 1 1
48 48 1 0.0000000000000000e+00 1.0455837651908304e+01 8.8966968472807135e+00 6.9096263145286523e+00 0 1 0
49 49 1 0.0000000000000000e+00 1.0328628699103676e+01 3.6030950331583021e+01 1.7235197966069226e+01 0 0 0
50 50 1 0.0000000000000000e+00 1.2983101064916735e+01 4.0884916109963399e+01 2.6501443700568231e+01 0 0 -1
51 51 1 0.0000000000000000e+00 1.5255783044961854e+01 3.5153583828171470e+01 6.6093142361587418e+00 0 0 0
52 52 1 0.0000000000000000e+00 1.5123593433183459e+01 6.0498408125618131e+00 1.2359256598501300e+01 0 1 2
53 53 1 0.0000000000000000e+00 1.1479651951956397e+01 4.7569616357437106e+00 6.7140999483490278e+00 0 1 0
54 54 1 0.0000000000000000e+00 1.4143020771999211e+01 7.5898981212479422e+00 1.8862310744417883e+01 0 1 0
55 55 1 0.0000000000000000e+00 1.4875653265412771e+01 3.8426802889768744e+01 1.0215825824691366e+01 0 0 0
56 56 1 0.0000000000000000e+00 9.8331011455603807e+00 3.9883229458091840e+01 2.9910298531653001e-01 0 0 0
57 57 1 0.0000000000000000e+00 9.7664658499855879e+00 3.6273061066586600e+01 6.9384800828614619e+00 0 0 -1
58 58 1 0.0000000000000000e+00 1.3365029456724196e+01 3.4734907436791559e+01 1.9664491567418132e+01 0 0 0
59 59 1 0.0000000000000000e+00 1.4736457868763599e+01 5.2574545691389778e+00 2.1044116099190838e+01 0 1 0
60 60 1 0.0000000000000000e+00 1.1554172355432790e+01 3.7493204762923014e+01 2.2148323332448200e+01 0 0 -1
61 61 1 0.0000000000000000e+00 1.3065210203566492e+01 3.9143917064479275e+01 1.6599361848073919e+01 0 0 0
62 62 1 0.0000000000000000e+00 1.3880589315167581e+01 6.5834389161461964e+00 2.5958371096159922e+01 0 1 -1
63 63 1 0.0000000000000000e+00 1.2727676519728826e+01 9.9942533079082523e+00 1.4007764719682118e+01 0 1 0
64 64 1 0.0000000000000000e+00 1.1047617150081063e+01 2.1623841699226180e+01 1.6978747363066898e+01 0 0 0
65 65 1 0.0000000000000000e+00 1.4662201413796531e+01 2.5481166455498293e+01 2.2490295995257277e+01 0 0 0
66 66 1 0.0000000000000000e+00 1.5149181329379743e+01 2.3350771936841415e+01 1.4059525600561539e+01 0 0 0
67 67 1 0.0000000000000000e+00 1.5268867660660778e+01 2.2645673180517981e+01 1.9800060481323630e+01 0 0 0
68 68 1 0.0000000000000000e+00 8.6305943727545795e+00 2.2630671287995920e+01 1.4175420730025607e+01 0 0 0
69 69 1 0.0000000000000000e+00 1.3146546337774417e+01 2.5067365965617444e+01 1.4947546534637764e+01 0 0 0
70 70 1 0.0000000000000000e+00 1.2426378061157966e+01 2.5053986960577376e+01 1.0996324316729421e+01 0 0 0
71 71 1 0.0000000000000000e+00 1.2490719231226768e+01 1.9427007801091097e+01 2.0396594709235504e+01 0 0 0
72 72 1 0.0000000000000000e+00 1.4389512242086429e+01 2.3915019897328797e+01 2.6256853649153562e+01 0 0 0
73 73 1 0.0000000000000000e+00 1.0091669612549875e+01 2.2485236310715919e+01 2.6231500224315440e+01 0 0 0
74 74 1 0.0000000000000000e+00 1.5711862791305553e+01 2.1877976207507011e+01 2.3388976999249977e+01 0 0 -1
75 75 1 0.0000000000000000e+00 1.4616159949689914e+01 2.1814765932556515e+01 4.2063908089538700e+00 0 0 0
76 76 1 0.0000000000000000e+00 1.0590186105098812e+01 2.2735882970835117e+01 1.4479166754951258e+00 0 0 0
77 77 1 0.0000000000000000e+00 1.1191766897333977e+01 2.4223513350300003e+01 2.3272275224661161e+01 0 0 -1
78 78 1 0.0000000000000000e+00 1.4058658989631594e+01 1.9670884694647626e+01 9.4229466475908605e+00 0 0 0
79 79 1 0.0000000000000000e+00 1.3374467493717635e+01 1.9397461605955570e+01 7.6537295428460750e+00 0 0 0
80 80 1 0.0000000000000000e+00 1.4080558898446474e+01 2.5660497971689935e+01 3.5035892074140809e+00 0 0 0
81 81 1 0.0000000000000000e+00 1.0580579835682455e+01 2.2453225033552208e+01 5.2160399522290035e+00 0 0 0
82 82 1 0.0000000000000000e+00 1.2418021062389013e+01 1.9571306954801347e+01 1.2941899628390278e+01 0 0 0
83 83 1 0.0000000000000000e+00 1.1253047094838969e+01 2.4922742988347487e+01 6.8397936863689894e+00 0 0 0
84 84 7 1.5600000000000001e+00 4.8693000000000000e+00 7.6517499999999998e+00 2.2086231000000002e+01 0 0 0
85 84 7 1.5600000000000001e+00 1.7926299999999998e+01 3.0266748999999997e+01 2.2086231000000002e+01 0 0 0
86 84 7 1.5600000000000001e+00 3.7972999999999999e+00 6.1767499999999984e+00 1.9780231000000001e+01 0 0 0
87 84 7 1.5600000000000001e+00 1.6854299999999999e+01 2.8791750999999998e+01 1.9780231000000001e+01 0 0 0
88 84 7 1.5600000000000001e+00 3.0562999999999998e+00 7.8437499999999991e+00 2.4392230000000001e+01 0 0 0
89 84 7 1.5600000000000001e+00 1.6113301000000000e+01 3.0458750999999996e+01 2.4392230000000001e+01 0 0 0
90 84 7 1.5600000000000001e+00 7.2983000000000002e+00 1.4334750000000000e+01 2.0217231000000002e+01 0 0 0
91 84 7 1.5600000000000001e+00 2.0354299999999999e+01 3.6949750000000002e+01 2.0217231000000002e+01 0 0 0
92 84 7 1.5600000000000001e+00 8.3703000000000003e+00 1.5809750999999999e+01 2.2522231999999999e+01 0 0 0
93 84 7 1.5600000000000001e+00 2.1427299999999999e+01 3.8424748000000001e+01 2.2522231999999999e+01 0 0 0
94 84 7 1.5600000000000001e+00 9.1113000000000000e+00 1.4142749999999999e+01 1.7911231000000001e+01 0 0 0
95 84 7 1.5600000000000001e+00 2.2168301000000000e+01 3.6757748999999997e+01 1.7911231000000001e+01 0 0 0
96 84 7 1.5600000000000001e+00 8.3703000000000003e+00 3.0885750999999996e+01 2.0217231000000002e+01 0 0 0
97 84 7 1.5600000000000001e+00 2.1427299999999999e+01 8.2707500000000014e+00 2.0217231000000002e+01 0 0 0
98 84 7 1.5600000000000001e+00 9.1113000000000000e+00 2.9219749999999998e+01 2.2522231999999999e+01 0 0 0
99 84 7 1.5600000000000001e+00 2.2168301000000000e+01 6.6047499999999983e+00 2.2522231999999999e+01 0 0 0
100 84 7 1.5600000000000001e+00 3.7972999999999999e+00 2.1253750999999998e+01 2.4392230000000001e+01 0 0 0
101 84 7 1.5600000000000001e+00 1.6854299999999999e+01 4.3868749000000001e+01 2.4392230000000001e+01 0 0 0
102 84 7 1.5600000000000001e+00 8.3703000000000003e+00 7.3274999999999990e-01 1.7911231000000001e+01 0 0 0
103 84 7 1.5600000000000001e+00 2.1427299999999999e+01 2.3347750999999999e+01 1.7911231000000001e+01 0 0 0
104 84 7 1.5600000000000001e+00 4.8693000000000000e+00 3.7804748999999994e+01 2.4392230000000001e+01 0 0 0
105 84 7 1.5600000000000001e+00 1.7926299999999998e+01 1.5189750000000000e+01 2.4392230000000001e+01 0 0 0
106 84 7 1.5600000000000001e+00 7.2983000000000002e+00 4.4487747999999996e+01 2.2522231999999999e+01 0 0 0
107 84 7 1.5600000000000001e+00 2.0354299999999999e+01 2.1872750000000000e+01 2.2522231999999999e+01 0 0 0
108 84 7 1.5600000000000001e+00 9.1113000000000000e+00 4.4296749999999989e+01 2.0217231000000002e+01 0 0 0
109 84 7 1.5600000000000001e+00 2.2168301000000000e+01 2.1681749999999997e+01 2.0217231000000002e+01 0 0 0
110 84 7 1.5600000000000001e+00 3.0562999999999998e+00 3.7996750999999996e+01 1.9780231000000001e+01 0 0 0
111 84 7 1.5600000000000001e+00 1.6113301000000000e+01 1.5381749999999998e+01 1.9780231000000001e+01 0 0 0
112 84 7 1.5600000000000001e+00 3.7972999999999999e+00 3.6330750000000002e+01 2.2086231000000002e+01 0 0 0
113 84 7 1.5600000000000001e+00 1.6854299999999999e+01 1.3715750000000000e+01 2.2086231000000002e+01 0 0 0
114 84 7 1.5600000000000001e+00 4.8693000000000000e+00 2.2728748999999993e+01 1.9780231000000001e+01 0 0 0
115 84 7 1.5600000000000001e+00 1.7926299999999998e+01 1.1375000000000002e-01 1.9780231000000001e+01 0 0 0
116 84 7 1.5600000000000001e+00 3.0562999999999998e+00 2.2919748999999999e+01 2.2086231000000002e+01 0 0 0
117 84 7 1.5600000000000001e+00 1.6113301000000000e+01 3.0475000000000002e-01 2.2086231000000002e+01 0 0 0
118 84 7 1.5600000000000001e+00 7.2983000000000002e+00 2.9411749999999998e+01 1.7911231000000001e+01 0 0 0
119 84 7 1.5600000000000001e+00 2.0354299999999999e+01 6.7967499999999994e+00 1.7911231000000001e+01 0 0 0
120 84 2 9.0000000000000002e-01 5.2592999999999996e+00 8.8557500000000005e+00 1.9457231000000000e+01 0 0 0
121 84 2 9.0000000000000002e-01 1.8316299999999998e+01 3.1470749999999999e+01 1.9457231000000000e+01 0 0 0
122 84 3 -3.1400000000000000e-01 5.6532999999999998e+00 9.9327500000000004e+00 1.8517230000000001e+01 0 0 0
123 84 3 -3.1400000000000000e-01 1.8710300999999998e+01 3.2547750000000001e+01 1.8517230000000001e+01 0 0 0
124 84 5 -2.3400000000000001e-01 6.4873000000000003e+00 1.0943750000000000e+01 1.9012231000000000e+01 0 0 0
125 84 5 -2.3400000000000001e-01 1.9544300000000000e+01 3.3558751000000001e+01 1.9012231000000000e+01 0 0 0
126 84 6 1.8600000000000000e-01 6.8033000000000001e+00 1.0891750000000000e+01 2.0052230000000002e+01 0 0 0
127 84 6 1.8600000000000000e-01 1.9860299999999999e+01 3.3506748999999999e+01 2.0052230000000002e+01 0 0 0
128 84 9 -7.5200000000000000e-01 5.7042999999999999e+00 8.8257500000000011e+00 2.0647231999999999e+01 0 0 0
129 84 9 -7.5200000000000000e-01 1.8761298999999998e+01 3.1440749000000000e+01 2.0647231999999999e+01 0 0 0
130 84 8 -8.9900000000000002e-01 4.4363000000000001e+00 7.9547499999999989e+00 1.9029230999999999e+01 0 0 0
131 84 8 -8.9900000000000002e-01 1.7493299999999998e+01 3.0569750999999997e+01 1.9029230999999999e+01 0 0 0
132 84 10 -9.0300000000000002e-01 7.7382999999999988e+00 1.2942749999999998e+01 1.8812231000000001e+01 0 0 0
133 84 10 -9.0300000000000002e-01 2.0795299999999997e+01 3.5557752000000001e+01 1.8812231000000001e+01 0 0 0
134 84 8 -8.9900000000000002e-01 4.2763000000000000e+00 6.4007499999999995e+00 2.3640232000000001e+01 0 0 0
135 84 8 -8.9900000000000002e-01 1.7332300000000000e+01 2.9015749999999993e+01 2.3640232000000001e+01 0 0 0
136 84 8 -8.9900000000000002e-01 3.0103000000000000e+00 7.3167499999999990e+00 2.1335231000000000e+01 0 0 0
137 84 8 -8.9900000000000002e-01 1.6066299999999998e+01 2.9931749999999994e+01 2.1335231000000000e+01 0 0 0
138 84 10 -9.0300000000000002e-01 4.4292999999999996e+00 9.0437499999999993e+00 2.3490230000000000e+01 0 0 0
139 84 10 -9.0300000000000002e-01 1.7485299999999999e+01 3.1658749999999998e+01 2.3490230000000000e+01 0 0 0
140 84 10 -9.0300000000000002e-01 5.2233000000000001e+00 5.8627499999999984e+00 2.1185231999999999e+01 0 0 0
141 84 10 -9.0300000000000002e-01 1.8280300000000000e+01 2.8477750000000000e+01 2.1185231999999999e+01 0 0 0
142 84 4 4.5600000000000002e-01 5.2272999999999996e+00 9.9697500000000012e+00 2.4066230000000001e+01 0 0 0
143 84 4 4.5600000000000002e-01 1.8284299999999998e+01 3.2584747999999998e+01 2.4066230000000001e+01 0 0 0
144 84 2 9.0000000000000002e-01 6.9083000000000006e+00 1.3130749999999999e+01 2.2846231000000000e+01 0 0 0
145 84 2 9.0000000000000002e-01 1.9964299999999998e+01 3.5745750999999998e+01 2.2846231000000000e+01 0 0 0
146 84 3 -3.1400000000000000e-01 6.5142999999999995e+00 1.2053750000000001e+01 2.3786231000000001e+01 0 0 0
147 84 3 -3.1400000000000000e-01 1.9571300999999998e+01 3.4668751999999998e+01 2.3786231000000001e+01 0 0 0
148 84 4 4.5600000000000002e-01 6.9393000000000002e+00 1.2016750000000000e+01 1.8237231999999999e+01 0 0 0
149 84 4 4.5600000000000002e-01 1.9996299999999998e+01 3.4631748999999999e+01 1.8237231999999999e+01 0 0 0
150 84 5 -2.3400000000000001e-01 5.6802999999999999e+00 1.1042750000000000e+01 2.3291231000000000e+01 0 0 0
151 84 5 -2.3400000000000001e-01 1.8736300000000000e+01 3.3657750000000000e+01 2.3291231000000000e+01 0 0 0
152 84 6 1.8600000000000000e-01 5.3643000000000001e+00 1.1094750000000001e+01 2.2251232000000002e+01 0 0 0
153 84 6 1.8600000000000000e-01 1.8421298999999998e+01 3.3709747999999990e+01 2.2251232000000002e+01 0 0 0
154 84 9 -7.5200000000000000e-01 6.4633000000000003e+00 1.3160750000000000e+01 2.1656230000000001e+01 0 0 0
155 84 9 -7.5200000000000000e-01 1.9520299999999999e+01 3.5775750000000002e+01 2.1656230000000001e+01 0 0 0
156 84 8 -8.9900000000000002e-01 7.7303000000000006e+00 1.4031750000000001e+01 2.3273230999999999e+01 0 0 0
157 84 8 -8.9900000000000002e-01 2.0787299999999998e+01 3.6646749000000000e+01 2.3273230999999999e+01 0 0 0
158 84 8 -8.9900000000000002e-01 7.8913000000000011e+00 1.5585750000000001e+01 1.8662230999999998e+01 0 0 0
159 84 8 -8.9900000000000002e-01 2.0948300000000000e+01 3.8200749000000002e+01 1.8662230999999998e+01 0 0 0
160 84 8 -8.9900000000000002e-01 9.1573000000000011e+00 1.4669750000000001e+01 2.0968230999999999e+01 0 0 0
161 84 8 -8.9900000000000002e-01 2.2214299999999998e+01 3.7284748999999998e+01 2.0968230999999999e+01 0 0 0
162 84 10 -9.0300000000000002e-01 6.9443000000000001e+00 1.6123749999999998e+01 2.1118231999999999e+01 0 0 0
163 84 10 -9.0300000000000002e-01 2.0001298999999999e+01 3.8738751000000001e+01 2.1118231999999999e+01 0 0 0
164 84 8 -8.9900000000000002e-01 9.1573000000000011e+00 2.9745749000000000e+01 1.8662230999999998e+01 0 0 0
165 84 8 -8.9900000000000002e-01 2.2214299999999998e+01 7.1307499999999999e+00 1.8662230999999998e+01 0 0 0
166 84 8 -8.9900000000000002e-01 7.8913000000000011e+00 3.0662748999999998e+01 2.3273230999999999e+01 0 0 0
167 84 8 -8.9900000000000002e-01 2.0948300000000000e+01 8.0477500000000006e+00 2.3273230999999999e+01 0 0 0
168 84 8 -8.9900000000000002e-01 4.2763000000000000e+00 2.1476749999999999e+01 2.1335231000000000e+01 0 0 0
169 84 8 -8.9900000000000002e-01 1.7332300000000000e+01 4.4091747999999995e+01 2.1335231000000000e+01 0 0 0
170 84 10 -9.0300000000000002e-01 5.2233000000000001e+00 2.0939750000000000e+01 1.8879230000000000e+01 0 0 0
171 84 10 -9.0300000000000002e-01 1.8280300000000000e+01 4.3554749000000001e+01 1.8879230000000000e+01 0 0 0
172 84 8 -8.9900000000000002e-01 7.8913000000000011e+00 5.0974999999999993e-01 2.0968230999999999e+01 0 0 0
173 84 8 -8.9900000000000002e-01 2.0948300000000000e+01 2.3124748999999998e+01 2.0968230999999999e+01 0 0 0
174 84 10 -9.0300000000000002e-01 6.9443000000000001e+00 1.0467500000000001e+00 2.3423231000000001e+01 0 0 0
175 84 10 -9.0300000000000002e-01 2.0001298999999999e+01 2.3661749999999998e+01 2.3423231000000001e+01 0 0 0
176 84 10 -9.0300000000000002e-01 4.4292999999999996e+00 3.9197750999999997e+01 1.8879230000000000e+01 0 0 0
177 84 10 -9.0300000000000002e-01 1.7485299999999999e+01 1.6582749000000000e+01 1.8879230000000000e+01 0 0 0
178 84 2 9.0000000000000002e-01 5.2592999999999996e+00 3.9009751000000001e+01 2.1762231000000000e+01 0 0 0
179 84 2 9.0000000000000002e-01 1.8316299999999998e+01 1.6394749999999995e+01 2.1762231000000000e+01 0 0 0
180 84 3 -3.1400000000000000e-01 5.6532999999999998e+00 4.0086751000000000e+01 2.0823229999999999e+01 0 0 0
181 84 3 -3.1400000000000000e-01 1.8710300999999998e+01 1.7471748999999999e+01 2.0823229999999999e+01 0 0 0
182 84 4 4.5600000000000002e-01 5.2272999999999996e+00 4.0123750000000001e+01 1.9455230000000000e+01 0 0 0
183 84 4 4.5600000000000002e-01 1.8284299999999998e+01 1.7508749999999999e+01 1.9455230000000000e+01 0 0 0
184 84 5 -2.3400000000000001e-01 6.4873000000000003e+00 4.1096748999999996e+01 2.1318231000000001e+01 0 0 0
185 84 5 -2.3400000000000001e-01 1.9544300000000000e+01 1.8481749999999998e+01 2.1318231000000001e+01 0 0 0
186 84 6 1.8600000000000000e-01 6.8033000000000001e+00 4.1044750999999998e+01 2.2357230999999999e+01 0 0 0
187 84 6 1.8600000000000000e-01 1.9860299999999999e+01 1.8429748999999997e+01 2.2357230999999999e+01 0 0 0
188 84 9 -7.5200000000000000e-01 5.7042999999999999e+00 3.8978749000000001e+01 2.2952231999999999e+01 0 0 0
189 84 9 -7.5200000000000000e-01 1.8761298999999998e+01 1.6363748999999999e+01 2.2952231999999999e+01 0 0 0
190 84 8 -8.9900000000000002e-01 4.4372999999999996e+00 3.8108749999999993e+01 2.1335231000000000e+01 0 0 0
191 84 8 -8.9900000000000002e-01 1.7493299999999998e+01 1.5493749999999999e+01 2.1335231000000000e+01 0 0 0
192 84 3 -3.1400000000000000e-01 6.5142999999999995e+00 4.2206749999999992e+01 1.9175231000000000e+01 0 0 0
193 84 3 -3.1400000000000000e-01 1.9571300999999998e+01 1.9591749999999998e+01 1.9175231000000000e+01 0 0 0
194 84 4 4.5600000000000002e-01 6.9393000000000002e+00 4.2169750999999998e+01 2.0542231999999998e+01 0 0 0
195 84 4 4.5600000000000002e-01 1.9996299999999998e+01 1.9554748999999997e+01 2.0542231999999998e+01 0 0 0
196 84 5 -2.3400000000000001e-01 5.6802999999999999e+00 4.1195748000000002e+01 1.8679231000000001e+01 0 0 0
197 84 5 -2.3400000000000001e-01 1.8736300000000000e+01 1.8580749999999998e+01 1.8679231000000001e+01 0 0 0
198 84 8 -8.9900000000000002e-01 7.7303000000000006e+00 4.4184750999999999e+01 1.8662230999999998e+01 0 0 0
199 84 8 -8.9900000000000002e-01 2.0787299999999998e+01 2.1569751000000000e+01 1.8662230999999998e+01 0 0 0
200 84 10 -9.0300000000000002e-01 7.7382999999999988e+00 4.3095749999999995e+01 2.1118231999999999e+01 0 0 0
201 84 10 -9.0300000000000002e-01 2.0795299999999997e+01 2.0480750000000000e+01 2.1118231999999999e+01 0 0 0
202 84 10 -9.0300000000000002e-01 5.2233000000000001e+00 3.6015751999999999e+01 2.3490230000000000e+01 0 0 0
203 84 10 -9.0300000000000002e-01 1.8280300000000000e+01 1.3400750000000000e+01 2.3490230000000000e+01 0 0 0
204 84 2 9.0000000000000002e-01 6.9083000000000006e+00 4.3283749999999998e+01 1.8235230999999999e+01 0 0 0
205 84 2 9.0000000000000002e-01 1.9964299999999998e+01 2.0668749999999999e+01 1.8235230999999999e+01 0 0 0
206 84 9 -7.5200000000000000e-01 6.4633000000000003e+00 4.3313747999999990e+01 2.3961231000000002e+01 0 0 0
207 84 9 -7.5200000000000000e-01 1.9520299999999999e+01 2.0698750000000000e+01 2.3961231000000002e+01 0 0 0
208 84 8 -8.9900000000000002e-01 9.1573000000000011e+00 4.4822750999999997e+01 2.3273230999999999e+01 0 0 0
209 84 8 -8.9900000000000002e-01 2.2214299999999998e+01 2.2207749000000000e+01 2.3273230999999999e+01 0 0 0
210 84 8 -8.9900000000000002e-01 4.2763000000000000e+00 3.6553750000000001e+01 1.9029230999999999e+01 0 0 0
211 84 8 -8.9900000000000002e-01 1.7333299999999998e+01 1.3938750000000001e+01 1.9029230999999999e+01 0 0 0
212 84 8 -8.9900000000000002e-01 3.0103000000000000e+00 3.7470749999999995e+01 2.3640232000000001e+01 0 0 0
213 84 8 -8.9900000000000002e-01 1.6066299999999998e+01 1.4855750000000000e+01 2.3640232000000001e+01 0 0 0
214 84 10 -9.0300000000000002e-01 2.0703000000000000e+00 2.1841749999999998e+01 2.3490230000000000e+01 0 0 0
215 84 10 -9.0300000000000002e-01 1.5127300000000000e+01 4.4456749999999992e+01 2.3490230000000000e+01 0 0 0
216 84 4 4.5600000000000002e-01 8.6930000000000018e-01 2.2070750000000000e+01 2.4066230000000001e+01 0 0 0
217 84 4 4.5600000000000002e-01 1.3926300000000001e+01 4.4685749999999999e+01 2.4066230000000001e+01 0 0 0
218 84 2 9.0000000000000002e-01 1.0349300000000001e+01 4.4560749999999999e+01 2.2846231000000000e+01 0 0 0
219 84 2 9.0000000000000002e-01 2.3406299999999998e+01 2.1945750000000000e+01 2.2846231000000000e+01 0 0 0
220 84 3 -3.1400000000000000e-01 1.1479300000000000e+01 4.4758751999999994e+01 2.3786231000000001e+01 0 0 0
221 84 3 -3.1400000000000000e-01 2.4535299999999999e+01 2.2143749999999997e+01 2.3786231000000001e+01 0 0 0
222 84 5 -2.3400000000000001e-01 2.5828299999999999e+01 2.1926748999999997e+01 2.3291231000000000e+01 -1 0 0
223 84 5 -2.3400000000000001e-01 1.2771300000000000e+01 4.4541748999999996e+01 2.3291231000000000e+01 0 0 0
224 84 6 1.8600000000000000e-01 2.5940300000000001e+01 2.1626749999999998e+01 2.2251232000000002e+01 -1 0 0
225 84 6 1.8600000000000000e-01 1.2883300000000000e+01 4.4241749999999996e+01 2.2251232000000002e+01 0 0 0
226 84 9 -7.5200000000000000e-01 1.0545300000000001e+01 4.4160747999999998e+01 2.1656230000000001e+01 0 0 0
227 84 9 -7.5200000000000000e-01 2.3602301000000001e+01 2.1545750999999999e+01 2.1656230000000001e+01 0 0 0
228 84 4 4.5600000000000002e-01 5.6253000000000002e+00 3.4860748999999998e+01 2.4066230000000001e+01 0 0 0
229 84 4 4.5600000000000002e-01 1.8682300999999999e+01 1.2245749999999999e+01 2.4066230000000001e+01 0 0 0
230 84 2 9.0000000000000002e-01 7.5222999999999995e+00 3.1825748999999998e+01 2.2846231000000000e+01 0 0 0
231 84 2 9.0000000000000002e-01 2.0579300000000000e+01 9.2107500000000009e+00 2.2846231000000000e+01 0 0 0
232 84 3 -3.1400000000000000e-01 6.7863000000000007e+00 3.2705750000000002e+01 2.3786231000000001e+01 0 0 0
233 84 3 -3.1400000000000000e-01 1.9843299999999999e+01 1.0090750000000000e+01 2.3786231000000001e+01 0 0 0
234 84 5 -2.3400000000000001e-01 6.3282999999999996e+00 3.3933751000000001e+01 2.3291231000000000e+01 0 0 0
235 84 5 -2.3400000000000001e-01 1.9385299999999997e+01 1.1318750000000000e+01 2.3291231000000000e+01 0 0 0
236 84 6 1.8600000000000000e-01 6.5323000000000002e+00 3.4180748999999999e+01 2.2251232000000002e+01 0 0 0
237 84 6 1.8600000000000000e-01 1.9588300999999998e+01 1.1565750000000000e+01 2.2251232000000002e+01 0 0 0
238 84 9 -7.5200000000000000e-01 7.7712999999999992e+00 3.2195748000000002e+01 2.1656230000000001e+01 0 0 0
239 84 9 -7.5200000000000000e-01 2.0828301000000000e+01 9.5807500000000001e+00 2.1656230000000001e+01 0 0 0
240 84 10 -9.0300000000000002e-01 1.0096300000000001e+01 3.0297749999999994e+01 2.1118231999999999e+01 0 0 0
241 84 10 -9.0300000000000002e-01 2.3153299999999998e+01 7.6827499999999986e+00 2.1118231999999999e+01 0 0 0
242 84 2 9.0000000000000002e-01 4.6452999999999998e+00 3.5390751999999999e+01 1.9457231000000000e+01 0 0 0
243 84 2 9.0000000000000002e-01 1.7701300000000000e+01 1.2775750000000000e+01 1.9457231000000000e+01 0 0 0
244 84 3 -3.1400000000000000e-01 5.3812999999999995e+00 3.4510750999999999e+01 1.8517230000000001e+01 0 0 0
245 84 3 -3.1400000000000000e-01 1.8437300000000000e+01 1.1895750000000001e+01 1.8517230000000001e+01 0 0 0
246 84 5 -2.3400000000000001e-01 5.8392999999999997e+00 3.3282750000000000e+01 1.9012231000000000e+01 0 0 0
247 84 5 -2.3400000000000001e-01 1.8896300000000000e+01 1.0667750000000000e+01 1.9012231000000000e+01 0 0 0
248 84 6 1.8600000000000000e-01 5.6353000000000000e+00 3.3035747999999998e+01 2.0052230000000002e+01 0 0 0
249 84 6 1.8600000000000000e-01 1.8692298999999998e+01 1.0420750000000000e+01 2.0052230000000002e+01 0 0 0
250 84 9 -7.5200000000000000e-01 4.3963000000000001e+00 3.5020749000000002e+01 2.0647231999999999e+01 0 0 0
251 84 9 -7.5200000000000000e-01 1.7453301000000000e+01 1.2405750000000001e+01 2.0647231999999999e+01 0 0 0
252 84 10 -9.0300000000000002e-01 2.0703000000000000e+00 3.6918751999999998e+01 2.1185231999999999e+01 0 0 0
253 84 10 -9.0300000000000002e-01 1.5127300000000000e+01 1.4303750000000001e+01 2.1185231999999999e+01 0 0 0
254 84 9 -7.5200000000000000e-01 1.6223000000000001e+00 3.8132748999999997e+01 1.8341232000000002e+01 0 0 0
255 84 9 -7.5200000000000000e-01 1.4679300000000000e+01 1.5517750000000001e+01 1.8341232000000002e+01 0 0 0
256 84 2 9.0000000000000002e-01 1.8183000000000000e+00 3.7731750999999996e+01 2.4068231000000001e+01 0 0 0
257 84 2 9.0000000000000002e-01 1.4875300000000001e+01 1.5116750000000000e+01 2.4068231000000001e+01 0 0 0
258 84 3 -3.1400000000000000e-01 6.8830000000000002e-01 3.7534748999999998e+01 2.3128231000000003e+01 0 0 0
259 84 3 -3.1400000000000000e-01 1.3745300000000000e+01 1.4919750000000001e+01 2.3128231000000003e+01 0 0 0
260 84 4 4.5600000000000002e-01 8.6930000000000018e-01 3.7147751999999997e+01 2.1760230000000000e+01 0 0 0
261 84 4 4.5600000000000002e-01 1.3926300000000001e+01 1.4532749999999998e+01 2.1760230000000000e+01 0 0 0
262 84 5 -2.3400000000000001e-01 1.2453300000000000e+01 1.5136749999999999e+01 2.3623231000000001e+01 0 0 0
263 84 5 -2.3400000000000001e-01 2.5509300000000000e+01 3.7751751999999996e+01 2.3623231000000001e+01 0 0 0
264 84 6 1.8600000000000000e-01 1.2340300000000001e+01 1.5436750000000000e+01 1.7746231000000002e+01 0 0 0
265 84 6 1.8600000000000000e-01 2.5397299000000000e+01 3.8051750999999989e+01 1.7746231000000002e+01 0 0 0
266 84 2 9.0000000000000002e-01 1.0349300000000001e+01 1.4407749999999998e+01 2.0540230999999999e+01 0 0 0
267 84 2 9.0000000000000002e-01 2.3406299999999998e+01 3.7022751999999997e+01 2.0540230999999999e+01 0 0 0
268 84 3 -3.1400000000000000e-01 1.1479300000000000e+01 1.4604750000000001e+01 2.1480232000000001e+01 0 0 0
269 84 3 -3.1400000000000000e-01 2.4535299999999999e+01 3.7219749999999998e+01 2.1480232000000001e+01 0 0 0
270 84 4 4.5600000000000002e-01 1.1298300000000001e+01 1.4991749999999998e+01 2.2848231999999999e+01 0 0 0
271 84 4 4.5600000000000002e-01 2.4354299999999999e+01 3.7606750999999996e+01 2.2848231999999999e+01 0 0 0
272 84 5 -2.3400000000000001e-01 2.5828299999999999e+01 3.7002750999999996e+01 2.0985230999999999e+01 -1 0 0
273 84 5 -2.3400000000000001e-01 1.2771300000000000e+01 1.4387749999999999e+01 2.0985230999999999e+01 0 0 0
274 84 6 1.8600000000000000e-01 2.5941299999999998e+01 3.6702748000000000e+01 1.9945232000000001e+01 -1 0 0
275 84 6 1.8600000000000000e-01 1.2883300000000000e+01 1.4087749999999998e+01 1.9945232000000001e+01 0 0 0