LAMMPS data file via write_data, version 30 Jul 2016, timestep = 0

1379 atoms
10 atom types

0.0000000000000000e+00 2.6114000000000001e+01 xlo xhi
0.0000000000000000e+00 4.5229999999999997e+01 ylo yhi
0.0000000000000000e+00 2.7667000000000002e+01 zlo zhi

Masses

1 16.04
2 12.011
3 12.011
4 12.011
5 12.011
6 1.008
7 24.305
8 15.999
9 15.999
10 15.999

Atoms # full

1 1 1 0.0000000000000000e+00 2.5669701000000000e+01 4.4916249000000001e+01 1.4893771000000001e+01 0 0 0
2 2 1 0.0000000000000000e+00 2.5669701000000000e+01 4.4916249000000001e+01 1.6211769999999998e+01 0 0 0
3 3 1 0.0000000000000000e+00 2.5669701000000000e+01 4.4916249000000001e+01 1.7528770000000002e+01 0 0 0
4 4 1 0.0000000000000000e+00 2.5669701000000000e+01 4.4916249000000001e+01 1.8846771000000000e+01 0 0 0
5 5 1 0.0000000000000000e+00 2.5669701000000000e+01 4.4916249000000001e+01 2.0163770000000000e+01 0 0 0
6 6 1 0.0000000000000000e+00 2.5669701000000000e+01 4.4916249000000001e+01 2.1481771000000002e+01 0 0 0
7 7 1 0.0000000000000000e+00 2.5669701000000000e+01 4.4916249000000001e+01 2.2798770000000001e+01 0 0 0
8 8 1 0.0000000000000000e+00 2.5669701000000000e+01 4.4916249000000001e+01 2.4116771000000000e+01 0 0 0
9 9 1 0.0000000000000000e+00 2.5669701000000000e+01 4.4916249000000001e+01 2.5433771000000000e+01 0 0 0
10 10 1 0.0000000000000000e+00 2.5669701000000000e+01 4.4916249000000001e+01 2.6751771000000005e+01 0 0 0
11 11 1 0.0000000000000000e+00 2.5669701000000000e+01 4.4916249000000001e+01 4.0177099999999999e-01 0 0 0
12 12 1 0.0000000000000000e+00 2.5669701000000000e+01 4.4916249000000001e+01 1.7187709999999998e+00 0 0 0
13 13 1 0.0000000000000000e+00 2.5669701000000000e+01 4.4916249000000001e+01 3.0367709999999999e+00 0 0 0
14 14 1 0.0000000000000000e+00 2.5669701000000000e+01 4.4916249000000001e+01 4.3537710000000001e+00 0 0 0
15 15 1 0.0000000000000000e+00 2.5669701000000000e+01 4.4916249000000001e+01 5.6717709999999997e+00 0 0 0
16 16 1 0.0000000000000000e+00 2.5669701000000000e+01 4.4916249000000001e+01 6.9887709999999990e+00 0 0 0
17 17 1 0.0000000000000000e+00 2.5669701000000000e+01 4.4916249000000001e+01 8.3067709999999995e+00 0 0 0
18 18 1 0.0000000000000000e+00 2.5669701000000000e+01 4.4916249000000001e+01 9.6237709999999996e+00 0 0 0
19 19 1 0.0000000000000000e+00 2.5669701000000000e+01 4.4916249000000001e+01 1.0941770999999999e+01 0 0 0
20 20 1 0.0000000000000000e+00 2.5669701000000000e+01 4.4916249000000001e+01 1.2258770999999999e+01 0 0 0
21 21 1 0.0000000000000000e+00 2.5669701000000000e+01 4.4916249000000001e+01 1.3576771000000001e+01 0 0 0
22 22 1 0.0000000000000000e+00 2.5669701000000000e+01 2.2300249999999998e+01 1.4893771000000001e+01 0 0 0
23 23 1 0.0000000000000000e+00 2.5669701000000000e+01 2.2300249999999998e+01 1.6211769999999998e+01 0 0 0
24 24 1 0.0000000000000000e+00 2.5669701000000000e+01 2.2300249999999998e+01 1.7528770000000002e+01 0 0 0
25 25 1 0.0000000000000000e+00 2.5669701000000000e+01 2.2300249999999998e+01 1.8846771000000000e+01 0 0 0
26 26 1 0.0000000000000000e+00 2.5669701000000000e+01 2.2300249999999998e+01 2.0163770000000000e+01 0 0 0
27 27 1 0.0000000000000000e+00 2.5669701000000000e+01 2.2300249999999998e+01 2.1481771000000002e+01 0 0 0
28 28 1 0.0000000000000000e+00 2.5669701000000000e+01 2.2300249999999998e+01 2.2798770000000001e+01 0 0 0
29 29 1 0.0000000000000000e+00 2.5669701000000000e+01 2.2300249999999998e+01 2.4116771000000000e+01 0 0 0
30 30 1 0.0000000000000000e+00 2.5669701000000000e+01 2.2300249999999998e+01 2.5433771000000000e+01 0 0 0
31 31 1 0.0000000000000000e+00 2.5669701000000000e+01 2.2300249999999998e+01 2.6751771000000005e+01 0 0 0
32 32 1 0.0000000000000000e+00 2.5669701000000000e+01 2.2300249999999998e+01 4.0177099999999999e-01 0 0 0
33 33 1 0.0000000000000000e+00 2.5669701000000000e+01 2.2300249999999998e+01 1.7187709999999998e+00 0 0 0
34 34 1 0.0000000000000000e+00 2.5669701000000000e+01 2.2300249999999998e+01 3.0367709999999999e+00 0 0 0
35 35 1 0.0000000000000000e+00 2.5669701000000000e+01 2.2300249999999998e+01 4.3537710000000001e+00 0 0 0
36 36 1 0.0000000000000000e+00 2.5669701000000000e+01 2.2300249999999998e+01 5.6717709999999997e+00 0 0 0
37 37 1 0.0000000000000000e+00 2.5669701000000000e+01 2.2300249999999998e+01 6.9887709999999990e+00 0 0 0
38 38 1 0.0000000000000000e+00 2.5669701000000000e+01 2.2300249999999998e+01 8.3067709999999995e+00 0 0 0
39 39 1 0.0000000000000000e+00 2.5669701000000000e+01 2.2300249999999998e+01 9.6237709999999996e+00 0 0 0
40 40 1 0.0000000000000000e+00 2.5669701000000000e+01 2.2300249999999998e+01 1.0941770999999999e+01 0 0 0
41 41 1 0.0000000000000000e+00 2.5669701000000000e+01 2.2300249999999998e+01 1.2258770999999999e+01 0 0 0
42 42 1 0.0000000000000000e+00 2.5669701000000000e+01 2.2300249999999998e+01 1.3576771000000001e+01 0 0 0
43 43 1 0.0000000000000000e+00 1.2611700000000001e+01 4.4916249000000001e+01 1.4893771000000001e+01 0 0 0
44 44 1 0.0000000000000000e+00 1.2611700000000001e+01 4.4916249000000001e+01 1.6211769999999998e+01 0 0 0
45 45 1 0.0000000000000000e+00 1.2611700000000001e+01 4.4916249000000001e+01 1.7528770000000002e+01 0 0 0
46 46 1 0.0000000000000000e+00 1.2611700000000001e+01 4.4916249000000001e+01 1.8846771000000000e+01 0 0 0
47 47 1 0.0000000000000000e+00 1.2611700000000001e+01 4.4916249000000001e+01 2.0163770000000000e+01 0 0 0
48 48 1 0.0000000000000000e+00 1.2611700000000001e+01 4.4916249000000001e+01 2.1481771000000002e+01 0 0 0
49 49 1 0.0000000000000000e+00 1.2611700000000001e+01 4.4916249000000001e+01 2.2798770000000001e+01 0 0 0
50 50 1 0.0000000000000000e+00 1.2611700000000001e+01 4.4916249000000001e+01 2.4116771000000000e+01 0 0 0
51 51 1 0.0000000000000000e+00 1.2611700000000001e+01 4.4916249000000001e+01 2.5433771000000000e+01 0 0 0
52 52 1 0.0000000000000000e+00 1.2611700000000001e+01 4.4916249000000001e+01 2.6751771000000005e+01 0 0 0
53 53 1 0.0000000000000000e+00 1.2611700000000001e+01 4.4916249000000001e+01 4.0177099999999999e-01 0 0 0
54 54 1 0.0000000000000000e+00 1.2611700000000001e+01 4.4916249000000001e+01 1.7187709999999998e+00 0 0 0
55 55 1 0.0000000000000000e+00 1.2611700000000001e+01 4.4916249000000001e+01 3.0367709999999999e+00 0 0 0
56 56 1 0.0000000000000000e+00 1.2611700000000001e+01 4.4916249000000001e+01 4.3537710000000001e+00 0 0 0
57 57 1 0.0000000000000000e+00 1.2611700000000001e+01 4.4916249000000001e+01 5.6717709999999997e+00 0 0 0
58 58 1 0.0000000000000000e+00 1.2611700000000001e+01 4.4916249000000001e+01 6.9887709999999990e+00 0 0 0
59 59 1 0.0000000000000000e+00 1.2611700000000001e+01 4.4916249000000001e+01 8.3067709999999995e+00 0 0 0
60 60 1 0.0000000000000000e+00 1.2611700000000001e+01 4.4916249000000001e+01 9.6237709999999996e+00 0 0 0
61 61 1 0.0000000000000000e+00 1.2611700000000001e+01 4.4916249000000001e+01 1.0941770999999999e+01 0 0 0
62 62 1 0.0000000000000000e+00 1.2611700000000001e+01 4.4916249000000001e+01 1.2258770999999999e+01 0 0 0
63 63 1 0.0000000000000000e+00 1.2611700000000001e+01 4.4916249000000001e+01 1.3576771000000001e+01 0 0 0
64 64 1 0.0000000000000000e+00 1.2611700000000001e+01 2.2300249999999998e+01 1.4893771000000001e+01 0 0 0
65 65 1 0.0000000000000000e+00 1.2611700000000001e+01 2.2300249999999998e+01 1.6211769999999998e+01 0 0 0
66 66 1 0.0000000000000000e+00 1.2611700000000001e+01 2.2300249999999998e+01 1.7528770000000002e+01 0 0 0
67 67 1 0.0000000000000000e+00 1.2611700000000001e+01 2.2300249999999998e+01 1.8846771000000000e+01 0 0 0
68 68 1 0.0000000000000000e+00 1.2611700000000001e+01 2.2300249999999998e+01 2.0163770000000000e+01 0 0 0
69 69 1 0.0000000000000000e+00 1.2611700000000001e+01 2.2300249999999998e+01 2.1481771000000002e+01 0 0 0
70 70 1 0.0000000000000000e+00 1.2611700000000001e+01 2.2300249999999998e+01 2.2798770000000001e+01 0 0 0
71 71 1 0.0000000000000000e+00 1.2611700000000001e+01 2.2300249999999998e+01 2.4116771000000000e+01 0 0 0
72 72 1 0.0000000000000000e+00 1.2611700000000001e+01 2.2300249999999998e+01 2.5433771000000000e+01 0 0 0
73 73 1 0.0000000000000000e+00 1.2611700000000001e+01 2.2300249999999998e+01 2.6751771000000005e+01 0 0 0
74 74 1 0.0000000000000000e+00 1.2611700000000001e+01 2.2300249999999998e+01 4.0177099999999999e-01 0 0 0
75 75 1 0.0000000000000000e+00 1.2611700000000001e+01 2.2300249999999998e+01 1.7187709999999998e+00 0 0 0
76 76 1 0.0000000000000000e+00 1.2611700000000001e+01 2.2300249999999998e+01 3.0367709999999999e+00 0 0 0
77 77 1 0.0000000000000000e+00 1.2611700000000001e+01 2.2300249999999998e+01 4.3537710000000001e+00 0 0 0
78 78 1 0.0000000000000000e+00 1.2611700000000001e+01 2.2300249999999998e+01 5.6717709999999997e+00 0 0 0
79 79 1 0.0000000000000000e+00 1.2611700000000001e+01 2.2300249999999998e+01 6.9887709999999990e+00 0 0 0
80 80 1 0.0000000000000000e+00 1.2611700000000001e+01 2.2300249999999998e+01 8.3067709999999995e+00 0 0 0
81 81 1 0.0000000000000000e+00 1.2611700000000001e+01 2.2300249999999998e+01 9.6237709999999996e+00 0 0 0
82 82 1 0.0000000000000000e+00 1.2611700000000001e+01 2.2300249999999998e+01 1.0941770999999999e+01 0 0 0
83 83 1 0.0000000000000000e+00 1.2611700000000001e+01 2.2300249999999998e+01 1.2258770999999999e+01 0 0 0
84 84 7 1.5600000000000001e+00 4.8693000000000000e+00 7.6517499999999998e+00 2.2086231000000002e+01 0 0 0
85 84 7 1.5600000000000001e+00 1.7926299999999998e+01 3.0266748999999997e+01 2.2086231000000002e+01 0 0 0
86 84 7 1.5600000000000001e+00 3.7972999999999999e+00 6.1767499999999984e+00 1.9780231000000001e+01 0 0 0
87 84 7 1.5600000000000001e+00 1.6854299999999999e+01 2.8791750999999998e+01 1.9780231000000001e+01 0 0 0
88 84 7 1.5600000000000001e+00 3.0562999999999998e+00 7.8437499999999991e+00 2.4392230000000001e+01 0 0 0
89 84 7 1.5600000000000001e+00 1.6113301000000000e+01 3.0458750999999996e+01 2.4392230000000001e+01 0 0 0
90 84 7 1.5600000000000001e+00 7.2983000000000002e+00 1.4334750000000000e+01 2.0217231000000002e+01 0 0 0
91 84 7 1.5600000000000001e+00 2.0354299999999999e+01 3.6949750000000002e+01 2.0217231000000002e+01 0 0 0
92 84 7 1.5600000000000001e+00 8.3703000000000003e+00 1.5809750999999999e+01 2.2522231999999999e+01 0 0 0
93 84 7 1.5600000000000001e+00 2.1427299999999999e+01 3.8424748000000001e+01 2.2522231999999999e+01 0 0 0
94 84 7 1.5600000000000001e+00 9.1113000000000000e+00 1.4142749999999999e+01 1.7911231000000001e+01 0 0 0
95 84 7 1.5600000000000001e+00 2.2168301000000000e+01 3.6757748999999997e+01 1.7911231000000001e+01 0 0 0
96 84 7 1.5600000000000001e+00 8.3703000000000003e+00 3.0885750999999996e+01 2.0217231000000002e+01 0 0 0
97 84 7 1.5600000000000001e+00 2.1427299999999999e+01 8.2707500000000014e+00 2.0217231000000002e+01 0 0 0
98 84 7 1.5600000000000001e+00 9.1113000000000000e+00 2.9219749999999998e+01 2.2522231999999999e+01 0 0 0
99 84 7 1.5600000000000001e+00 2.2168301000000000e+01 6.6047499999999983e+00 2.2522231999999999e+01 0 0 0
100 84 7 1.5600000000000001e+00 3.7972999999999999e+00 2.1253750999999998e+01 2.4392230000000001e+01 0 0 0
101 84 7 1.5600000000000001e+00 1.6854299999999999e+01 4.3868749000000001e+01 2.4392230000000001e+01 0 0 0
102 84 7 1.5600000000000001e+00 8.3703000000000003e+00 7.3274999999999990e-01 1.7911231000000001e+01 0 0 0
103 84 7 1.5600000000000001e+00 2.1427299999999999e+01 2.3347750999999999e+01 1.7911231000000001e+01 0 0 0
104 84 7 1.5600000000000001e+00 4.8693000000000000e+00 3.7804748999999994e+01 2.4392230000000001e+01 0 0 0
105 84 7 1.5600000000000001e+00 1.7926299999999998e+01 1.5189750000000000e+01 2.4392230000000001e+01 0 0 0
106 84 7 1.5600000000000001e+00 7.2983000000000002e+00 4.4487747999999996e+01 2.2522231999999999e+01 0 0 0
107 84 7 1.5600000000000001e+00 2.0354299999999999e+01 2.1872750000000000e+01 2.2522231999999999e+01 0 0 0
108 84 7 1.5600000000000001e+00 9.1113000000000000e+00 4.4296749999999989e+01 2.0217231000000002e+01 0 0 0
109 84 7 1.5600000000000001e+00 2.2168301000000000e+01 2.1681749999999997e+01 2.0217231000000002e+01 0 0 0
110 84 7 1.5600000000000001e+00 3.0562999999999998e+00 3.7996750999999996e+01 1.9780231000000001e+01 0 0 0
111 84 7 1.5600000000000001e+00 1.6113301000000000e+01 1.5381749999999998e+01 1.9780231000000001e+01 0 0 0
112 84 7 1.5600000000000001e+00 3.7972999999999999e+00 3.6330750000000002e+01 2.2086231000000002e+01 0 0 0
113 84 7 1.5600000000000001e+00 1.6854299999999999e+01 1.3715750000000000e+01 2.2086231000000002e+01 0 0 0
114 84 7 1.5600000000000001e+00 4.8693000000000000e+00 2.2728748999999993e+01 1.9780231000000001e+01 0 0 0
115 84 7 1.5600000000000001e+00 1.7926299999999998e+01 1.1375000000000002e-01 1.9780231000000001e+01 0 0 0
116 84 7 1.5600000000000001e+00 3.0562999999999998e+00 2.2919748999999999e+01 2.2086231000000002e+01 0 0 0
117 84 7 1.5600000000000001e+00 1.6113301000000000e+01 3.0475000000000002e-01 2.2086231000000002e+01 0 0 0
118 84 7 1.5600000000000001e+00 7.2983000000000002e+00 2.9411749999999998e+01 1.7911231000000001e+01 0 0 0
119 84 7 1.5600000000000001e+00 2.0354299999999999e+01 6.7967499999999994e+00 1.7911231000000001e+01 0 0 0
120 84 2 9.0000000000000002e-01 5.2592999999999996e+00 8.8557500000000005e+00 1.9457231000000000e+01 0 0 0
121 84 2 9.0000000000000002e-01 1.8316299999999998e+01 3.1470749999999999e+01 1.9457231000000000e+01 0 0 0
122 84 3 -3.1400000000000000e-01 5.6532999999999998e+00 9.9327500000000004e+00 1.8517230000000001e+01 0 0 0
123 84 3 -3.1400000000000000e-01 1.8710300999999998e+01 3.2547750000000001e+01 1.8517230000000001e+01 0 0 0
124 84 5 -2.3400000000000001e-01 6.4873000000000003e+00 1.0943750000000000e+01 1.9012231000000000e+01 0 0 0
125 84 5 -2.3400000000000001e-01 1.9544300000000000e+01 3.3558751000000001e+01 1.9012231000000000e+01 0 0 0
126 84 6 1.8600000000000000e-01 6.8033000000000001e+00 1.0891750000000000e+01 2.0052230000000002e+01 0 0 0
127 84 6 1.8600000000000000e-01 1.9860299999999999e+01 3.3506748999999999e+01 2.0052230000000002e+01 0 0 0
128 84 9 -7.5200000000000000e-01 5.7042999999999999e+00 8.8257500000000011e+00 2.0647231999999999e+01 0 0 0
129 84 9 -7.5200000000000000e-01 1.8761298999999998e+01 3.1440749000000000e+01 2.0647231999999999e+01 0 0 0
130 84 8 -8.9900000000000002e-01 4.4363000000000001e+00 7.9547499999999989e+00 1.9029230999999999e+01 0 0 0
131 84 8 -8.9900000000000002e-01 1.7493299999999998e+01 3.0569750999999997e+01 1.9029230999999999e+01 0 0 0
132 84 10 -9.0300000000000002e-01 7.7382999999999988e+00 1.2942749999999998e+01 1.8812231000000001e+01 0 0 0
133 84 10 -9.0300000000000002e-01 2.0795299999999997e+01 3.5557752000000001e+01 1.8812231000000001e+01 0 0 0
134 84 8 -8.9900000000000002e-01 4.2763000000000000e+00 6.4007499999999995e+00 2.3640232000000001e+01 0 0 0
135 84 8 -8.9900000000000002e-01 1.7332300000000000e+01 2.9015749999999993e+01 2.3640232000000001e+01 0 0 0
136 84 8 -8.9900000000000002e-01 3.0103000000000000e+00 7.3167499999999990e+00 2.1335231000000000e+01 0 0 0
137 84 8 -8.9900000000000002e-01 1.6066299999999998e+01 2.9931749999999994e+01 2.1335231000000000e+01 0 0 0
138 84 10 -9.0300000000000002e-01 4.4292999999999996e+00 9.0437499999999993e+00 2.3490230000000000e+01 0 0 0
139 84 10 -9.0300000000000002e-01 1.7485299999999999e+01 3.1658749999999998e+01 2.3490230000000000e+01 0 0 0
140 84 10 -9.0300000000000002e-01 5.2233000000000001e+00 5.8627499999999984e+00 2.1185231999999999e+01 0 0 0
141 84 10 -9.0300000000000002e-01 1.8280300000000000e+01 2.8477750000000000e+01 2.1185231999999999e+01 0 0 0
142 84 4 4.5600000000000002e-01 5.2272999999999996e+00 9.9697500000000012e+00 2.4066230000000001e+01 0 0 0
143 84 4 4.5600000000000002e-01 1.8284299999999998e+01 3.2584747999999998e+01 2.4066230000000001e+01 0 0 0
144 84 2 9.0000000000000002e-01 6.9083000000000006e+00 1.3130749999999999e+01 2.2846231000000000e+01 0 0 0
145 84 2 9.0000000000000002e-01 1.9964299999999998e+01 3.5745750999999998e+01 2.2846231000000000e+01 0 0 0
146 84 3 -3.1400000000000000e-01 6.5142999999999995e+00 1.2053750000000001e+01 2.3786231000000001e+01 0 0 0
147 84 3 -3.1400000000000000e-01 1.9571300999999998e+01 3.4668751999999998e+01 2.3786231000000001e+01 0 0 0
148 84 4 4.5600000000000002e-01 6.9393000000000002e+00 1.2016750000000000e+01 1.8237231999999999e+01 0 0 0
149 84 4 4.5600000000000002e-01 1.9996299999999998e+01 3.4631748999999999e+01 1.8237231999999999e+01 0 0 0
150 84 5 -2.3400000000000001e-01 5.6802999999999999e+00 1.1042750000000000e+01 2.3291231000000000e+01 0 0 0
151 84 5 -2.3400000000000001e-01 1.8736300000000000e+01 3.3657750000000000e+01 2.3291231000000000e+01 0 0 0
152 84 6 1.8600000000000000e-01 5.3643000000000001e+00 1.1094750000000001e+01 2.2251232000000002e+01 0 0 0
153 84 6 1.8600000000000000e-01 1.8421298999999998e+01 3.3709747999999990e+01 2.2251232000000002e+01 0 0 0
154 84 9 -7.5200000000000000e-01 6.4633000000000003e+00 1.3160750000000000e+01 2.1656230000000001e+01 0 0 0
155 84 9 -7.5200000000000000e-01 1.9520299999999999e+01 3.5775750000000002e+01 2.1656230000000001e+01 0 0 0
156 84 8 -8.9900000000000002e-01 7.7303000000000006e+00 1.4031750000000001e+01 2.3273230999999999e+01 0 0 0
157 84 8 -8.9900000000000002e-01 2.0787299999999998e+01 3.6646749000000000e+01 2.3273230999999999e+01 0 0 0
158 84 8 -8.9900000000000002e-01 7.8913000000000011e+00 1.5585750000000001e+01 1.8662230999999998e+01 0 0 0
159 84 8 -8.9900000000000002e-01 2.0948300000000000e+01 3.8200749000000002e+01 1.8662230999999998e+01 0 0 0
160 84 8 -8.9900000000000002e-01 9.1573000000000011e+00 1.4669750000000001e+01 2.0968230999999999e+01 0 0 0
161 84 8 -8.9900000000000002e-01 2.2214299999999998e+01 3.7284748999999998e+01 2.0968230999999999e+01 0 0 0
162 84 10 -9.0300000000000002e-01 6.9443000000000001e+00 1.6123749999999998e+01 2.1118231999999999e+01 0 0 0
163 84 10 -9.0300000000000002e-01 2.0001298999999999e+01 3.8738751000000001e+01 2.1118231999999999e+01 0 0 0
164 84 8 -8.9900000000000002e-01 9.1573000000000011e+00 2.9745749000000000e+01 1.8662230999999998e+01 0 0 0
165 84 8 -8.9900000000000002e-01 2.2214299999999998e+01 7.1307499999999999e+00 1.8662230999999998e+01 0 0 0
166 84 8 -8.9900000000000002e-01 7.8913000000000011e+00 3.0662748999999998e+01 2.3273230999999999e+01 0 0 0
167 84 8 -8.9900000000000002e-01 2.0948300000000000e+01 8.0477500000000006e+00 2.3273230999999999e+01 0 0 0
168 84 8 -8.9900000000000002e-01 4.2763000000000000e+00 2.1476749999999999e+01 2.1335231000000000e+01 0 0 0
169 84 8 -8.9900000000000002e-01 1.7332300000000000e+01 4.4091747999999995e+01 2.1335231000000000e+01 0 0 0
170 84 10 -9.0300000000000002e-01 5.2233000000000001e+00 2.0939750000000000e+01 1.8879230000000000e+01 0 0 0
171 84 10 -9.0300000000000002e-01 1.8280300000000000e+01 4.3554749000000001e+01 1.8879230000000000e+01 0 0 0
172 84 8 -8.9900000000000002e-01 7.8913000000000011e+00 5.0974999999999993e-01 2.0968230999999999e+01 0 0 0
173 84 8 -8.9900000000000002e-01 2.0948300000000000e+01 2.3124748999999998e+01 2.0968230999999999e+01 0 0 0
174 84 10 -9.0300000000000002e-01 6.9443000000000001e+00 1.0467500000000001e+00 2.3423231000000001e+01 0 0 0
175 84 10 -9.0300000000000002e-01 2.0001298999999999e+01 2.3661749999999998e+01 2.3423231000000001e+01 0 0 0
176 84 10 -9.0300000000000002e-01 4.4292999999999996e+00 3.9197750999999997e+01 1.8879230000000000e+01 0 0 0
177 84 10 -9.0300000000000002e-01 1.7485299999999999e+01 1.6582749000000000e+01 1.8879230000000000e+01 0 0 0
178 84 2 9.0000000000000002e-01 5.2592999999999996e+00 3.9009751000000001e+01 2.1762231000000000e+01 0 0 0
179 84 2 9.0000000000000002e-01 1.8316299999999998e+01 1.6394749999999995e+01 2.1762231000000000e+01 0 0 0
180 84 3 -3.1400000000000000e-01 5.6532999999999998e+00 4.0086751000000000e+01 2.0823229999999999e+01 0 0 0
181 84 3 -3.1400000000000000e-01 1.8710300999999998e+01 1.7471748999999999e+01 2.0823229999999999e+01 0 0 0
182 84 4 4.5600000000000002e-01 5.2272999999999996e+00 4.0123750000000001e+01 1.9455230000000000e+01 0 0 0
183 84 4 4.5600000000000002e-01 1.8284299999999998e+01 1.7508749999999999e+01 1.9455230000000000e+01 0 0 0
184 84 5 -2.3400000000000001e-01 6.4873000000000003e+00 4.1096748999999996e+01 2.1318231000000001e+01 0 0 0
185 84 5 -2.3400000000000001e-01 1.9544300000000000e+01 1.8481749999999998e+01 2.1318231000000001e+01 0 0 0
186 84 6 1.8600000000000000e-01 6.8033000000000001e+00 4.1044750999999998e+01 2.2357230999999999e+01 0 0 0
187 84 6 1.8600000000000000e-01 1.9860299999999999e+01 1.8429748999999997e+01 2.2357230999999999e+01 0 0 0
188 84 9 -7.5200000000000000e-01 5.7042999999999999e+00 3.8978749000000001e+01 2.2952231999999999e+01 0 0 0
189 84 9 -7.5200000000000000e-01 1.8761298999999998e+01 1.6363748999999999e+01 2.2952231999999999e+01 0 0 0
190 84 8 -8.9900000000000002e-01 4.4372999999999996e+00 3.8108749999999993e+01 2.1335231000000000e+01 0 0 0
191 84 8 -8.9900000000000002e-01 1.7493299999999998e+01 1.5493749999999999e+01 2.1335231000000000e+01 0 0 0
192 84 3 -3.1400000000000000e-01 6.5142999999999995e+00 4.2206749999999992e+01 1.9175231000000000e+01 0 0 0
193 84 3 -3.1400000000000000e-01 1.9571300999999998e+01 1.9591749999999998e+01 1.9175231000000000e+01 0 0 0
194 84 4 4.5600000000000002e-01 6.9393000000000002e+00 4.2169750999999998e+01 2.0542231999999998e+01 0 0 0
195 84 4 4.5600000000000002e-01 1.9996299999999998e+01 1.9554748999999997e+01 2.0542231999999998e+01 0 0 0
196 84 5 -2.3400000000000001e-01 5.6802999999999999e+00 4.1195748000000002e+01 1.8679231000000001e+01 0 0 0
197 84 5 -2.3400000000000001e-01 1.8736300000000000e+01 1.8580749999999998e+01 1.8679231000000001e+01 0 0 0
198 84 8 -8.9900000000000002e-01 7.7303000000000006e+00 4.4184750999999999e+01 1.8662230999999998e+01 0 0 0
199 84 8 -8.9900000000000002e-01 2.0787299999999998e+01 2.1569751000000000e+01 1.8662230999999998e+01 0 0 0
200 84 10 -9.0300000000000002e-01 7.7382999999999988e+00 4.3095749999999995e+01 2.1118231999999999e+01 0 0 0
201 84 10 -9.0300000000000002e-01 2.0795299999999997e+01 2.0480750000000000e+01 2.1118231999999999e+01 0 0 0
202 84 10 -9.0300000000000002e-01 5.2233000000000001e+00 3.6015751999999999e+01 2.3490230000000000e+01 0 0 0
203 84 10 -9.0300000000000002e-01 1.8280300000000000e+01 1.3400750000000000e+01 2.3490230000000000e+01 0 0 0
204 84 2 9.0000000000000002e-01 6.9083000000000006e+00 4.3283749999999998e+01 1.8235230999999999e+01 0 0 0
205 84 2 9.0000000000000002e-01 1.9964299999999998e+01 2.0668749999999999e+01 1.8235230999999999e+01 0 0 0
206 84 9 -7.5200000000000000e-01 6.4633000000000003e+00 4.3313747999999990e+01 2.3961231000000002e+01 0 0 0
207 84 9 -7.5200000000000000e-01 1.9520299999999999e+01 2.0698750000000000e+01 2.3961231000000002e+01 0 0 0
208 84 8 -8.9900000000000002e-01 9.1573000000000011e+00 4.4822750999999997e+01 2.3273230999999999e+01 0 0 0
209 84 8 -8.9900000000000002e-01 2.2214299999999998e+01 2.2207749000000000e+01 2.3273230999999999e+01 0 0 0
210 84 8 -8.9900000000000002e-01 4.2763000000000000e+00 3.6553750000000001e+01 1.9029230999999999e+01 0 0 0
211 84 8 -8.9900000000000002e-01 1.7333299999999998e+01 1.3938750000000001e+01 1.9029230999999999e+01 0 0 0
212 84 8 -8.9900000000000002e-01 3.0103000000000000e+00 3.7470749999999995e+01 2.3640232000000001e+01 0 0 0
213 84 8 -8.9900000000000002e-01 1.6066299999999998e+01 1.4855750000000000e+01 2.3640232000000001e+01 0 0 0
214 84 10 -9.0300000000000002e-01 2.0703000000000000e+00 2.1841749999999998e+01 2.3490230000000000e+01 0 0 0
215 84 10 -9.0300000000000002e-01 1.5127300000000000e+01 4.4456749999999992e+01 2.3490230000000000e+01 0 0 0
216 84 4 4.5600000000000002e-01 8.6930000000000018e-01 2.2070750000000000e+01 2.4066230000000001e+01 0 0 0
217 84 4 4.5600000000000002e-01 1.3926300000000001e+01 4.4685749999999999e+01 2.4066230000000001e+01 0 0 0
218 84 2 9.0000000000000002e-01 1.0349300000000001e+01 4.4560749999999999e+01 2.2846231000000000e+01 0 0 0
219 84 2 9.0000000000000002e-01 2.3406299999999998e+01 2.1945750000000000e+01 2.2846231000000000e+01 0 0 0
220 84 3 -3.1400000000000000e-01 1.1479300000000000e+01 4.4758751999999994e+01 2.3786231000000001e+01 0 0 0
221 84 3 -3.1400000000000000e-01 2.4535299999999999e+01 2.2143749999999997e+01 2.3786231000000001e+01 0 0 0
222 84 5 -2.3400000000000001e-01 2.5828299999999999e+01 2.1926748999999997e+01 2.3291231000000000e+01 -1 0 0
223 84 5 -2.3400000000000001e-01 1.2771300000000000e+01 4.4541748999999996e+01 2.3291231000000000e+01 0 0 0
224 84 6 1.8600000000000000e-01 2.5940300000000001e+01 2.1626749999999998e+01 2.2251232000000002e+01 -1 0 0
225 84 6 1.8600000000000000e-01 1.2883300000000000e+01 4.4241749999999996e+01 2.2251232000000002e+01 0 0 0
226 84 9 -7.5200000000000000e-01 1.0545300000000001e+01 4.4160747999999998e+01 2.1656230000000001e+01 0 0 0
227 84 9 -7.5200000000000000e-01 2.3602301000000001e+01 2.1545750999999999e+01 2.1656230000000001e+01 0 0 0
228 84 4 4.5600000000000002e-01 5.6253000000000002e+00 3.4860748999999998e+01 2.4066230000000001e+01 0 0 0
229 84 4 4.5600000000000002e-01 1.8682300999999999e+01 1.2245749999999999e+01 2.4066230000000001e+01 0 0 0
230 84 2 9.0000000000000002e-01 7.5222999999999995e+00 3.1825748999999998e+01 2.2846231000000000e+01 0 0 0
231 84 2 9.0000000000000002e-01 2.0579300000000000e+01 9.2107500000000009e+00 2.2846231000000000e+01 0 0 0
232 84 3 -3.1400000000000000e-01 6.7863000000000007e+00 3.2705750000000002e+01 2.3786231000000001e+01 0 0 0
233 84 3 -3.1400000000000000e-01 1.9843299999999999e+01 1.0090750000000000e+01 2.3786231000000001e+01 0 0 0
234 84 5 -2.3400000000000001e-01 6.3282999999999996e+00 3.3933751000000001e+01 2.3291231000000000e+01 0 0 0
235 84 5 -2.3400000000000001e-01 1.9385299999999997e+01 1.1318750000000000e+01 2.3291231000000000e+01 0 0 0
236 84 6 1.8600000000000000e-01 6.5323000000000002e+00 3.4180748999999999e+01 2.2251232000000002e+01 0 0 0
237 84 6 1.8600000000000000e-01 1.9588300999999998e+01 1.1565750000000000e+01 2.2251232000000002e+01 0 0 0
238 84 9 -7.5200000000000000e-01 7.7712999999999992e+00 3.2195748000000002e+01 2.1656230000000001e+01 0 0 0
239 84 9 -7.5200000000000000e-01 2.0828301000000000e+01 9.5807500000000001e+00 2.1656230000000001e+01 0 0 0
240 84 10 -9.0300000000000002e-01 1.0096300000000001e+01 3.0297749999999994e+01 2.1118231999999999e+01 0 0 0
241 84 10 -9.0300000000000002e-01 2.3153299999999998e+01 7.6827499999999986e+00 2.1118231999999999e+01 0 0 0
242 84 2 9.0000000000000002e-01 4.6452999999999998e+00 3.5390751999999999e+01 1.9457231000000000e+01 0 0 0
243 84 2 9.0000000000000002e-01 1.7701300000000000e+01 1.2775750000000000e+01 1.9457231000000000e+01 0 0 0
244 84 3 -3.1400000000000000e-01 5.3812999999999995e+00 3.4510750999999999e+01 1.8517230000000001e+01 0 0 0
245 84 3 -3.1400000000000000e-01 1.8437300000000000e+01 1.1895750000000001e+01 1.8517230000000001e+01 0 0 0
246 84 5 -2.3400000000000001e-01 5.8392999999999997e+00 3.3282750000000000e+01 1.9012231000000000e+01 0 0 0
247 84 5 -2.3400000000000001e-01 1.8896300000000000e+01 1.0667750000000000e+01 1.9012231000000000e+01 0 0 0
248 84 6 1.8600000000000000e-01 5.6353000000000000e+00 3.3035747999999998e+01 2.0052230000000002e+01 0 0 0
249 84 6 1.8600000000000000e-01 1.8692298999999998e+01 1.0420750000000000e+01 2.0052230000000002e+01 0 0 0
250 84 9 -7.5200000000000000e-01 4.3963000000000001e+00 3.5020749000000002e+01 2.0647231999999999e+01 0 0 0
251 84 9 -7.5200000000000000e-01 1.7453301000000000e+01 1.2405750000000001e+01 2.0647231999999999e+01 0 0 0
252 84 10 -9.0300000000000002e-01 2.0703000000000000e+00 3.6918751999999998e+01 2.1185231999999999e+01 0 0 0
253 84 10 -9.0300000000000002e-01 1.5127300000000000e+01 1.4303750000000001e+01 2.1185231999999999e+01 0 0 0
254 84 9 -7.5200000000000000e-01 1.6223000000000001e+00 3.8132748999999997e+01 1.8341232000000002e+01 0 0 0
255 84 9 -7.5200000000000000e-01 1.4679300000000000e+01 1.5517750000000001e+01 1.8341232000000002e+01 0 0 0
256 84 2 9.0000000000000002e-01 1.8183000000000000e+00 3.7731750999999996e+01 2.4068231000000001e+01 0 0 0
257 84 2 9.0000000000000002e-01 1.4875300000000001e+01 1.5116750000000000e+01 2.4068231000000001e+01 0 0 0
258 84 3 -3.1400000000000000e-01 6.8830000000000002e-01 3.7534748999999998e+01 2.3128231000000003e+01 0 0 0
259 84 3 -3.1400000000000000e-01 1.3745300000000000e+01 1.4919750000000001e+01 2.3128231000000003e+01 0 0 0
260 84 4 4.5600000000000002e-01 8.6930000000000018e-01 3.7147751999999997e+01 2.1760230000000000e+01 0 0 0
261 84 4 4.5600000000000002e-01 1.3926300000000001e+01 1.4532749999999998e+01 2.1760230000000000e+01 0 0 0
262 84 5 -2.3400000000000001e-01 1.2453300000000000e+01 1.5136749999999999e+01 2.3623231000000001e+01 0 0 0
263 84 5 -2.3400000000000001e-01 2.5509300000000000e+01 3.7751751999999996e+01 2.3623231000000001e+01 0 0 0
264 84 6 1.8600000000000000e-01 1.2340300000000001e+01 1.5436750000000000e+01 1.7746231000000002e+01 0 0 0
265 84 6 1.8600000000000000e-01 2.5397299000000000e+01 3.8051750999999989e+01 1.7746231000000002e+01 0 0 0
266 84 2 9.0000000000000002e-01 1.0349300000000001e+01 1.4407749999999998e+01 2.0540230999999999e+01 0 0 0
267 84 2 9.0000000000000002e-01 2.3406299999999998e+01 3.7022751999999997e+01 2.0540230999999999e+01 0 0 0
268 84 3 -3.1400000000000000e-01 1.1479300000000000e+01 1.4604750000000001e+01 2.1480232000000001e+01 0 0 0
269 84 3 -3.1400000000000000e-01 2.4535299999999999e+01 3.7219749999999998e+01 2.1480232000000001e+01 0 0 0
270 84 4 4.5600000000000002e-01 1.1298300000000001e+01 1.4991749999999998e+01 2.2848231999999999e+01 0 0 0
271 84 4 4.5600000000000002e-01 2.4354299999999999e+01 3.7606750999999996e+01 2.2848231999999999e+01 0 0 0
272 84 5 -2.3400000000000001e-01 2.5828299999999999e+01 3.7002750999999996e+01 2.0985230999999999e+01 -1 0 0
273 84 5 -2.3400000000000001e-01 1.2771300000000000e+01 1.4387749999999999e+01 2.0985230999999999e+01 0 0 0
274 84 6 1.8600000000000000e-01 2.5941299999999998e+01 3.6702748000000000e+01 1.9945232000000001e+01 -1 0 0
275 84 6 1.8600000000000000e-01 1.2883300000000000e+01 1.4087749999999998e+01 1.9945232000000001e+01 0 0 0
276 84 9 -7.5200000000000000e-01 1.0545300000000001e+01 1.4007750000000000e+01 1.9350231000000001e+01 0 0 0