ITEM: TIMESTEP
0
ITEM: NUMBER OF ATOMS
1379
ITEM: BOX BOUNDS pp pp pp
0 26.114
0 45.23
0 27.667
ITEM: ATOMS element x y z 
1 25.6697 44.9162 14.8938 
1 25.6697 44.9162 16.2118 
1 25.6697 44.9162 17.5288 
1 25.6697 44.9162 18.8468 
1 25.6697 44.9162 20.1638 
1 25.6697 44.9162 21.4818 
1 25.6697 44.9162 22.7988 
1 25.6697 44.9162 24.1168 
1 25.6697 44.9162 25.4338 
1 25.6697 44.9162 26.7518 
1 25.6697 44.9162 0.401771 
1 25.6697 44.9162 1.71877 
1 25.6697 44.9162 3.03677 
1 25.6697 44.9162 4.35377 
1 25.6697 44.9162 5.67177 
1 25.6697 44.9162 6.98877 
1 25.6697 44.9162 8.30677 
1 25.6697 44.9162 9.62377 
1 25.6697 44.9162 10.9418 
1 25.6697 44.9162 12.2588 
1 25.6697 44.9162 13.5768 
1 25.6697 22.3002 14.8938 
1 25.6697 22.3002 16.2118 
1 25.6697 22.3002 17.5288 
1 25.6697 22.3002 18.8468 
1 25.6697 22.3002 20.1638 
1 25.6697 22.3002 21.4818 
1 25.6697 22.3002 22.7988 
1 25.6697 22.3002 24.1168 
1 25.6697 22.3002 25.4338 
1 25.6697 22.3002 26.7518 
1 25.6697 22.3002 0.401771 
1 25.6697 22.3002 1.71877 
1 25.6697 22.3002 3.03677 
1 25.6697 22.3002 4.35377 
1 25.6697 22.3002 5.67177 
1 25.6697 22.3002 6.98877 
1 25.6697 22.3002 8.30677 
1 25.6697 22.3002 9.62377 
1 25.6697 22.3002 10.9418 
1 25.6697 22.3002 12.2588 
1 25.6697 22.3002 13.5768 
1 12.6117 44.9162 14.8938 
1 12.6117 44.9162 16.2118 
1 12.6117 44.9162 17.5288 
1 12.6117 44.9162 18.8468 
1 12.6117 44.9162 20.1638 
1 12.6117 44.9162 21.4818 
1 12.6117 44.9162 22.7988 
1 12.6117 44.9162 24.1168 
1 12.6117 44.9162 25.4338 
1 12.6117 44.9162 26.7518 
1 12.6117 44.9162 0.401771 
1 12.6117 44.9162 1.71877 
1 12.6117 44.9162 3.03677 
1 12.6117 44.9162 4.35377 
1 12.6117 44.9162 5.67177 
1 12.6117 44.9162 6.98877 
1 12.6117 44.9162 8.30677 
1 12.6117 44.9162 9.62377 
1 12.6117 44.9162 10.9418 
1 12.6117 44.9162 12.2588 
1 12.6117 44.9162 13.5768 
1 12.6117 22.3002 14.8938 
1 12.6117 22.3002 16.2118 
1 12.6117 22.3002 17.5288 
1 12.6117 22.3002 18.8468 
1 12.6117 22.3002 20.1638 
1 12.6117 22.3002 21.4818 
1 12.6117 22.3002 22.7988 
1 12.6117 22.3002 24.1168 
1 12.6117 22.3002 25.4338 
1 12.6117 22.3002 26.7518 
1 12.6117 22.3002 0.401771 
1 12.6117 22.3002 1.71877 
1 12.6117 22.3002 3.03677 
1 12.6117 22.3002 4.35377 
1 12.6117 22.3002 5.67177 
1 12.6117 22.3002 6.98877 
1 12.6117 22.3002 8.30677 
1 12.6117 22.3002 9.62377 
1 12.6117 22.3002 10.9418 
1 12.6117 22.3002 12.2588 
7 4.8693 7.65175 22.0862 
7 17.9263 30.2667 22.0862 
7 3.7973 6.17675 19.7802 
7 16.8543 28.7918 19.7802 
7 3.0563 7.84375 24.3922 
7 16.1133 30.4588 24.3922 
7 7.2983 14.3347 20.2172 
7 20.3543 36.9498 20.2172 
7 8.3703 15.8098 22.5222 
7 21.4273 38.4247 22.5222 
7 9.1113 14.1427 17.9112 
7 22.1683 36.7577 17.9112 
7 8.3703 30.8858 20.2172 
7 21.4273 8.27075 20.2172 
7 9.1113 29.2197 22.5222 
7 22.1683 6.60475 22.5222 
7 3.7973 21.2538 24.3922 
7 16.8543 43.8687 24.3922 
7 8.3703 0.73275 17.9112 
7 21.4273 23.3478 17.9112 
7 4.8693 37.8047 24.3922 
7 17.9263 15.1898 24.3922 
7 7.2983 44.4877 22.5222 
7 20.3543 21.8727 22.5222 
7 9.1113 44.2967 20.2172 
7 22.1683 21.6817 20.2172 
7 3.0563 37.9968 19.7802 
7 16.1133 15.3817 19.7802 
7 3.7973 36.3308 22.0862 
7 16.8543 13.7157 22.0862 
7 4.8693 22.7287 19.7802 
7 17.9263 0.11375 19.7802 
7 3.0563 22.9197 22.0862 
7 16.1133 0.30475 22.0862 
7 7.2983 29.4117 17.9112 
7 20.3543 6.79675 17.9112 
2 5.2593 8.85575 19.4572 
2 18.3163 31.4707 19.4572 
3 5.6533 9.93275 18.5172 
3 18.7103 32.5478 18.5172 
5 6.4873 10.9437 19.0122 
5 19.5443 33.5588 19.0122 
6 6.8033 10.8918 20.0522 
6 19.8603 33.5067 20.0522 
9 5.7043 8.82575 20.6472 
9 18.7613 31.4407 20.6472 
8 4.4363 7.95475 19.0292 
8 17.4933 30.5698 19.0292 
10 7.7383 12.9427 18.8122 
10 20.7953 35.5578 18.8122 
8 4.2763 6.40075 23.6402 
8 17.3323 29.0157 23.6402 
8 3.0103 7.31675 21.3352 
8 16.0663 29.9317 21.3352 
10 4.4293 9.04375 23.4902 
10 17.4853 31.6587 23.4902 
10 5.2233 5.86275 21.1852 
10 18.2803 28.4778 21.1852 
4 5.2273 9.96975 24.0662 
4 18.2843 32.5847 24.0662 
2 6.9083 13.1307 22.8462 
2 19.9643 35.7458 22.8462 
3 6.5143 12.0538 23.7862 
3 19.5713 34.6688 23.7862 
4 6.9393 12.0168 18.2372 
4 19.9963 34.6317 18.2372 
5 5.6803 11.0427 23.2912 
5 18.7363 33.6578 23.2912 
6 5.3643 11.0948 22.2512 
6 18.4213 33.7097 22.2512 
9 6.4633 13.1608 21.6562 
9 19.5203 35.7758 21.6562 
8 7.7303 14.0318 23.2732 
8 20.7873 36.6467 23.2732 
8 7.8913 15.5858 18.6622 
8 20.9483 38.2007 18.6622 
8 9.1573 14.6698 20.9682 
8 22.2143 37.2847 20.9682 
10 6.9443 16.1237 21.1182 
10 20.0013 38.7388 21.1182 
8 9.1573 29.7457 18.6622 
8 22.2143 7.13075 18.6622 
8 7.8913 30.6627 23.2732 
8 20.9483 8.04775 23.2732 
8 4.2763 21.4767 21.3352 
8 17.3323 44.0917 21.3352 
10 5.2233 20.9398 18.8792 
10 18.2803 43.5547 18.8792 
8 7.8913 0.50975 20.9682 
8 20.9483 23.1247 20.9682 
10 6.9443 1.04675 23.4232 
10 20.0013 23.6617 23.4232 
10 4.4293 39.1978 18.8792 
10 17.4853 16.5827 18.8792 
2 5.2593 39.0098 21.7622 
2 18.3163 16.3947 21.7622 
3 5.6533 40.0868 20.8232 
3 18.7103 17.4717 20.8232 
4 5.2273 40.1238 19.4552 
4 18.2843 17.5087 19.4552 
5 6.4873 41.0967 21.3182 
5 19.5443 18.4817 21.3182 
6 6.8033 41.0448 22.3572 
6 19.8603 18.4297 22.3572 
9 5.7043 38.9787 22.9522 
9 18.7613 16.3637 22.9522 
8 4.4373 38.1087 21.3352 
8 17.4933 15.4937 21.3352 
3 6.5143 42.2067 19.1752 
3 19.5713 19.5917 19.1752 
4 6.9393 42.1698 20.5422 
4 19.9963 19.5547 20.5422 
5 5.6803 41.1957 18.6792 
5 18.7363 18.5807 18.6792 
8 7.7303 44.1848 18.6622 
8 20.7873 21.5698 18.6622 
10 7.7383 43.0957 21.1182 
10 20.7953 20.4808 21.1182 
10 5.2233 36.0158 23.4902 
10 18.2803 13.4008 23.4902 
2 6.9083 43.2837 18.2352 
2 19.9643 20.6687 18.2352 
9 6.4633 43.3137 23.9612 
9 19.5203 20.6988 23.9612 
8 9.1573 44.8228 23.2732 
8 22.2143 22.2077 23.2732 
8 4.2763 36.5538 19.0292 
8 17.3333 13.9388 19.0292 
8 3.0103 37.4707 23.6402 
8 16.0663 14.8558 23.6402 
10 2.0703 21.8417 23.4902 
10 15.1273 44.4567 23.4902 
4 0.8693 22.0708 24.0662 
4 13.9263 44.6857 24.0662 
2 10.3493 44.5607 22.8462 
2 23.4063 21.9458 22.8462 
3 11.4793 44.7588 23.7862 
3 24.5353 22.1437 23.7862 
5 25.8283 21.9267 23.2912 
5 12.7713 44.5417 23.2912 
6 25.9403 21.6267 22.2512 
6 12.8833 44.2417 22.2512 
9 10.5453 44.1607 21.6562 
9 23.6023 21.5458 21.6562 
4 5.6253 34.8607 24.0662 
4 18.6823 12.2457 24.0662 
2 7.5223 31.8257 22.8462 
2 20.5793 9.21075 22.8462 
3 6.7863 32.7058 23.7862 
3 19.8433 10.0907 23.7862 
5 6.3283 33.9338 23.2912 
5 19.3853 11.3187 23.2912 
6 6.5323 34.1807 22.2512 
6 19.5883 11.5657 22.2512 
9 7.7713 32.1957 21.6562 
9 20.8283 9.58075 21.6562 
10 10.0963 30.2977 21.1182 
10 23.1533 7.68275 21.1182 
2 4.6453 35.3908 19.4572 
2 17.7013 12.7758 19.4572 
3 5.3813 34.5108 18.5172 
3 18.4373 11.8958 18.5172 
5 5.8393 33.2828 19.0122 
5 18.8963 10.6677 19.0122 
6 5.6353 33.0357 20.0522 
6 18.6923 10.4207 20.0522 
9 4.3963 35.0207 20.6472 
9 17.4533 12.4058 20.6472 
10 2.0703 36.9188 21.1852 
10 15.1273 14.3038 21.1852 
9 1.6223 38.1327 18.3412 
9 14.6793 15.5178 18.3412 
2 1.8183 37.7318 24.0682 
2 14.8753 15.1167 24.0682 
3 0.6883 37.5347 23.1282 
3 13.7453 14.9198 23.1282 
4 0.8693 37.1478 21.7602 
4 13.9263 14.5327 21.7602 
5 12.4533 15.1367 23.6232 
5 25.5093 37.7518 23.6232 
6 12.3403 15.4367 17.7462 
6 25.3973 38.0518 17.7462 
2 10.3493 14.4077 20.5402 
2 23.4063 37.0228 20.5402 
3 11.4793 14.6048 21.4802 
3 24.5353 37.2197 21.4802 
4 11.2983 14.9917 22.8482 
4 24.3543 37.6068 22.8482 
5 25.8283 37.0028 20.9852 
5 12.7713 14.3877 20.9852 
6 25.9413 36.7027 19.9452 
6 12.8833 14.0877 19.9452 
9 10.5453 14.0077 19.3502 
9 23.6023 36.6227 19.3502 
10 10.0963 15.2208 23.4232 
10 23.1533 37.8358 23.4232 
9 4.3963 4.86775 18.3412 
9 17.4533 27.4828 18.3412 
10 2.0703 6.76575 18.8792 
10 15.1273 29.3807 18.8792 
2 4.6453 5.23775 24.0682 
2 17.7013 27.8527 24.0682 
3 5.3813 4.35775 23.1282 
3 18.4373 26.9728 23.1282 
4 5.6253 4.70775 21.7602 
4 18.6823 27.3227 21.7602 
5 5.8393 3.12975 23.6232 
5 18.8953 25.7447 23.6232 
6 5.6353 2.88275 17.7462 
6 18.6923 25.4977 17.7462 
2 7.5223 1.67275 20.5402 
2 20.5793 24.2877 20.5402 
3 6.7863 2.55175 21.4802 
3 19.8433 25.1668 21.4802 
4 6.5423 2.20175 22.8482 
4 19.5983 24.8168 22.8482 
5 6.3283 3.77975 20.9852 
5 19.3853 26.3947 20.9852 
6 6.5323 4.02675 19.9452 
6 19.5883 26.6417 19.9452 
9 7.7713 2.04275 19.3502 
9 20.8283 24.6578 19.3502 
2 1.8183 7.57875 21.7622 
2 14.8753 30.1937 21.7622 
3 0.6883 7.38175 20.8232 
3 13.7453 29.9968 20.8232 
4 0.8693 6.99475 19.4552 
4 13.9263 29.6097 19.4552 
5 12.4533 30.2137 21.3182 
5 25.5093 7.59875 21.3182 
6 12.3403 30.5137 22.3572 
6 25.3973 7.89875 22.3572 
9 1.6223 7.97875 22.9522 
9 14.6793 30.5938 22.9522 
3 11.4793 29.6817 19.1752 
3 24.5353 7.06675 19.1752 
4 11.2983 30.0687 20.5422 
4 24.3543 7.45375 20.5422 
5 25.8283 6.84975 18.6792 
5 12.7713 29.4647 18.6792 
2 10.3493 29.4847 18.2352 
2 23.4063 6.86975 18.2352 
9 10.5453 29.0838 23.9612 
9 23.6023 6.46875 23.9612 
2 4.6453 20.3137 21.7622 
2 17.7013 42.9288 21.7622 
3 5.3813 19.4348 20.8232 
3 18.4373 42.0497 20.8232 
4 5.6253 19.7848 19.4552 
4 18.6823 42.3998 19.4552 
5 5.8393 18.2067 21.3182 
5 18.8963 40.8218 21.3182 
6 5.6353 17.9597 22.3572 
6 18.6923 40.5748 22.3572 
9 4.3963 19.9437 22.9522 
9 17.4533 42.5588 22.9522 
3 6.7863 17.6288 19.1752 
3 19.8433 40.2437 19.1752 
4 6.5423 17.2787 20.5422 
4 19.5983 39.8937 20.5422 
5 6.3283 18.8567 18.6792 
5 19.3853 41.4717 18.6792 
2 7.5223 16.7487 18.2352 
2 20.5793 39.3638 18.2352 
9 7.7713 17.1188 23.9612 
9 20.8283 39.7338 23.9612 
9 5.7043 23.9027 18.3412 
9 18.7613 1.28775 18.3412 
8 3.0103 22.3937 19.0292 
8 16.0663 45.0087 19.0292 
10 4.4293 24.1207 21.1852 
10 17.4853 1.50575 21.1852 
2 5.2593 23.9327 24.0682 
2 18.3163 1.31775 24.0682 
3 5.6533 25.0097 23.1282 
3 18.7103 2.39475 23.1282 
4 5.2273 25.0467 21.7602 
4 18.2843 2.43175 21.7602 
5 6.4873 26.0207 23.6232 
5 19.5443 3.40575 23.6232 
6 6.8033 25.9677 17.7462 
6 19.8603 3.35275 17.7462 
8 4.4363 23.0318 23.6402 
8 17.4933 0.41675 23.6402 
2 6.9083 28.2067 20.5402 
2 19.9643 5.59175 20.5402 
3 6.5143 27.1297 21.4802 
3 19.5713 4.51475 21.4802 
4 6.9393 27.0927 22.8482 
4 19.9963 4.47775 22.8482 
5 5.6803 26.1197 20.9852 
5 18.7363 3.50475 20.9852 
6 5.3643 26.1717 19.9452 
6 18.4213 3.55675 19.9452 
9 6.4633 28.2377 19.3502 
9 19.5203 5.62275 19.3502 
8 7.7303 29.1078 20.9682 
8 20.7873 6.49275 20.9682 
10 7.7383 28.0187 23.4232 
10 20.7953 5.40375 23.4232 
2 1.8183 22.6557 19.4572 
2 14.8753 0.04075 19.4572 
3 0.6883 22.4577 18.5172 
3 13.7453 45.0727 18.5172 
5 12.4533 0.05975 19.0122 
5 25.5093 22.6747 19.0122 
6 12.3403 0.35975 20.0522 
6 25.3973 22.9748 20.0522 
9 1.6223 23.0558 20.6472 
9 14.6793 0.44075 20.6472 
10 6.9443 31.2007 18.8122 
10 20.0013 8.58575 18.8122 
6 5.3643 41.2488 24.5562 
6 18.4213 18.6337 24.5562 
10 10.0963 0.14475 18.8122 
10 23.1533 22.7597 18.8122 
4 11.2983 45.1457 18.2372 
4 24.3553 22.5307 18.2372 
4 6.5413 32.3557 18.2372 
4 19.5983 9.74075 18.2372 
6 25.9403 6.54975 24.5562 
6 12.8833 29.1647 24.5562 
6 6.5323 19.1037 24.5562 
6 19.5883 41.7188 24.5562 
7 4.8693 7.65175 1.33627 
7 17.9263 30.2667 1.33627 
7 3.7973 6.17675 26.6972 
7 16.8543 28.7918 26.6972 
7 3.0563 7.84375 3.64227 
7 16.1133 30.4588 3.64227 
7 7.2983 14.3347 27.1342 
7 20.3543 36.9498 27.1342 
7 8.3703 15.8098 1.77227 
7 21.4273 38.4247 1.77227 
7 9.1113 14.1427 24.8282 
7 22.1683 36.7577 24.8282 
7 8.3703 30.8858 27.1342 
7 21.4273 8.27075 27.1342 
7 9.1113 29.2197 1.77227 
7 22.1683 6.60475 1.77227 
7 3.7973 21.2538 3.64227 
7 16.8543 43.8687 3.64227 
7 8.3703 0.73275 24.8282 
7 21.4273 23.3478 24.8282 
7 4.8693 37.8047 3.64227 
7 17.9263 15.1898 3.64227 
7 7.2983 44.4877 1.77227 
7 20.3543 21.8727 1.77227 
7 9.1113 44.2967 27.1342 
7 22.1683 21.6817 27.1342 
7 3.0563 37.9968 26.6972 
7 16.1133 15.3817 26.6972 
7 3.7973 36.3308 1.33627 
7 16.8543 13.7157 1.33627 
7 4.8693 22.7287 26.6972 
7 17.9263 0.11375 26.6972 
7 3.0563 22.9197 1.33627 
7 16.1133 0.30475 1.33627 
7 7.2983 29.4117 24.8282 
7 20.3543 6.79675 24.8282 
2 5.2593 8.85575 26.3742 
2 18.3163 31.4707 26.3742 
3 5.6533 9.93275 25.4342 
3 18.7103 32.5478 25.4342 
5 6.4873 10.9437 25.9292 
5 19.5443 33.5588 25.9292 
6 6.8033 10.8918 26.9692 
6 19.8603 33.5067 26.9692 
9 5.7043 8.82575 27.5642 
9 18.7613 31.4407 27.5642 
8 4.4363 7.95475 25.9462 
8 17.4933 30.5698 25.9462 
10 7.7383 12.9427 25.7292 
10 20.7953 35.5578 25.7292 
8 4.2763 6.40075 2.89027 
8 17.3323 29.0157 2.89027 
8 3.0103 7.31675 0.585271 
8 16.0663 29.9317 0.585271 
10 4.4293 9.04375 2.74027 
10 17.4853 31.6587 2.74027 
10 5.2233 5.86275 0.435271 
10 18.2803 28.4778 0.435271 
4 5.2273 9.96975 3.31627 
4 18.2843 32.5847 3.31627 
2 6.9083 13.1307 2.09627 
2 19.9643 35.7458 2.09627 
3 6.5143 12.0538 3.03627 
3 19.5713 34.6688 3.03627 
4 6.9393 12.0168 25.1542 
4 19.9963 34.6317 25.1542 
5 5.6803 11.0427 2.54127 
5 18.7363 33.6578 2.54127 
6 5.3643 11.0948 1.50127 
6 18.4213 33.7097 1.50127 
9 6.4633 13.1608 0.906271 
9 19.5203 35.7758 0.906271 
8 7.7303 14.0318 2.52327 
8 20.7873 36.6467 2.52327 
8 7.8913 15.5858 25.5792 
8 20.9483 38.2007 25.5792 
8 9.1573 14.6698 0.21823 
8 22.2143 37.2847 0.21823 
10 6.9443 16.1237 0.36823 
10 20.0013 38.7388 0.36823 
8 9.1573 29.7457 25.5792 
8 22.2143 7.13075 25.5792 
8 7.8913 30.6627 2.52327 
8 20.9483 8.04775 2.52327 
8 4.2763 21.4767 0.585271 
8 17.3323 44.0917 0.585271 
10 5.2233 20.9398 25.7962 
10 18.2803 43.5547 25.7962 
8 7.8913 0.50975 0.21823 
8 20.9483 23.1247 0.21823 
10 6.9443 1.04675 2.67327 
10 20.0013 23.6617 2.67327 
10 4.4293 39.1978 25.7962 
10 17.4853 16.5827 25.7962 
2 5.2593 39.0098 1.01227 
2 18.3163 16.3947 1.01227 
3 5.6533 40.0868 0.07323 
3 18.7103 17.4717 0.07323 
4 5.2273 40.1238 26.3722 
4 18.2843 17.5087 26.3722 
5 6.4873 41.0967 0.568271 
5 19.5443 18.4817 0.568271 
6 6.8033 41.0448 1.60727 
6 19.8603 18.4297 1.60727 
9 5.7043 38.9787 2.20227 
9 18.7613 16.3637 2.20227 
8 4.4373 38.1087 0.585271 
8 17.4933 15.4937 0.585271 
3 6.5143 42.2067 26.0922 
3 19.5713 19.5917 26.0922 
4 6.9393 42.1698 27.4592 
4 19.9963 19.5547 27.4592 
5 5.6803 41.1957 25.5962 
5 18.7363 18.5807 25.5962 
8 7.7303 44.1848 25.5792 
8 20.7873 21.5698 25.5792 
10 7.7383 43.0957 0.36823 
10 20.7953 20.4808 0.36823 
10 5.2233 36.0158 2.74027 
10 18.2803 13.4008 2.74027 
2 6.9083 43.2837 25.1522 
2 19.9643 20.6687 25.1522 
9 6.4633 43.3137 3.21127 
9 19.5203 20.6988 3.21127 
8 9.1573 44.8228 2.52327 
8 22.2143 22.2077 2.52327 
8 4.2763 36.5538 25.9462 
8 17.3333 13.9388 25.9462 
8 3.0103 37.4707 2.89027 
8 16.0663 14.8558 2.89027 
10 2.0703 21.8417 2.74027 
10 15.1273 44.4567 2.74027 
4 0.8693 22.0708 3.31627 
4 13.9263 44.6857 3.31627 
2 10.3493 44.5607 2.09627 
2 23.4063 21.9458 2.09627 
3 11.4793 44.7588 3.03627 
3 24.5353 22.1437 3.03627 
5 25.8283 21.9267 2.54127 
5 12.7713 44.5417 2.54127 
6 25.9403 21.6267 1.50127 
6 12.8833 44.2417 1.50127 
9 10.5453 44.1607 0.906271 
9 23.6023 21.5458 0.906271 
4 5.6253 34.8607 3.31627 
4 18.6823 12.2457 3.31627 
2 7.5223 31.8257 2.09627 
2 20.5793 9.21075 2.09627 
3 6.7863 32.7058 3.03627 
3 19.8433 10.0907 3.03627 
5 6.3283 33.9338 2.54127 
5 19.3853 11.3187 2.54127 
6 6.5323 34.1807 1.50127 
6 19.5883 11.5657 1.50127 
9 7.7713 32.1957 0.906271 
9 20.8283 9.58075 0.906271 
10 10.0963 30.2977 0.36823 
10 23.1533 7.68275 0.36823 
2 4.6453 35.3908 26.3742 
2 17.7013 12.7758 26.3742 
3 5.3813 34.5108 25.4342 
3 18.4373 11.8958 25.4342 
5 5.8393 33.2828 25.9292 
5 18.8963 10.6677 25.9292 
6 5.6353 33.0357 26.9692 
6 18.6923 10.4207 26.9692 
9 4.3963 35.0207 27.5642 
9 17.4533 12.4058 27.5642 
10 2.0703 36.9188 0.435271 
10 15.1273 14.3038 0.435271 
9 1.6223 38.1327 25.2582 
9 14.6793 15.5178 25.2582 
2 1.8183 37.7318 3.31827 
2 14.8753 15.1167 3.31827 
3 0.6883 37.5347 2.37827 
3 13.7453 14.9198 2.37827 
4 0.8693 37.1478 1.01027 
4 13.9263 14.5327 1.01027 
5 12.4533 15.1367 2.87327 
5 25.5093 37.7518 2.87327 
6 12.3403 15.4367 24.6632 
6 25.3973 38.0518 24.6632 
2 10.3493 14.4077 27.4572 
2 23.4063 37.0228 27.4572 
3 11.4793 14.6048 0.730271 
3 24.5353 37.2197 0.730271 
4 11.2983 14.9917 2.09827 
4 24.3543 37.6068 2.09827 
5 25.8283 37.0028 0.235231 
5 12.7713 14.3877 0.235231 
6 25.9413 36.7027 26.8622 
6 12.8833 14.0877 26.8622 
9 10.5453 14.0077 26.2672 
9 23.6023 36.6227 26.2672 
10 10.0963 15.2208 2.67327 
10 23.1533 37.8358 2.67327 
9 4.3963 4.86775 25.2582 
9 17.4533 27.4828 25.2582 
10 2.0703 6.76575 25.7962 
10 15.1273 29.3807 25.7962 
2 4.6453 5.23775 3.31827 
2 17.7013 27.8527 3.31827 
3 5.3813 4.35775 2.37827 
3 18.4373 26.9728 2.37827 
4 5.6253 4.70775 1.01027 
4 18.6823 27.3227 1.01027 
5 5.8393 3.12975 2.87327 
5 18.8953 25.7447 2.87327 
6 5.6353 2.88275 24.6632 
6 18.6923 25.4977 24.6632 
2 7.5223 1.67275 27.4572 
2 20.5793 24.2877 27.4572 
3 6.7863 2.55175 0.730271 
3 19.8433 25.1668 0.730271 
4 6.5423 2.20175 2.09827 
4 19.5983 24.8168 2.09827 
5 6.3283 3.77975 0.235231 
5 19.3853 26.3947 0.235231 
6 6.5323 4.02675 26.8622 
6 19.5883 26.6417 26.8622 
9 7.7713 2.04275 26.2672 
9 20.8283 24.6578 26.2672 
2 1.8183 7.57875 1.01227 
2 14.8753 30.1937 1.01227 
3 0.6883 7.38175 0.07323 
3 13.7453 29.9968 0.07323 
4 0.8693 6.99475 26.3722 
4 13.9263 29.6097 26.3722 
5 12.4533 30.2137 0.568271 
5 25.5093 7.59875 0.568271 
6 12.3403 30.5137 1.60727 
6 25.3973 7.89875 1.60727 
9 1.6223 7.97875 2.20227 
9 14.6793 30.5938 2.20227 
3 11.4793 29.6817 26.0922 
3 24.5353 7.06675 26.0922 
4 11.2983 30.0687 27.4592 
4 24.3543 7.45375 27.4592 
5 25.8283 6.84975 25.5962 
5 12.7713 29.4647 25.5962 
2 10.3493 29.4847 25.1522 
2 23.4063 6.86975 25.1522 
9 10.5453 29.0838 3.21127 
9 23.6023 6.46875 3.21127 
2 4.6453 20.3137 1.01227 
2 17.7013 42.9288 1.01227 
3 5.3813 19.4348 0.07323 
3 18.4373 42.0497 0.07323 
4 5.6253 19.7848 26.3722 
4 18.6823 42.3998 26.3722 
5 5.8393 18.2067 0.568271 
5 18.8963 40.8218 0.568271 
6 5.6353 17.9597 1.60727 
6 18.6923 40.5748 1.60727 
9 4.3963 19.9437 2.20227 
9 17.4533 42.5588 2.20227 
3 6.7863 17.6288 26.0922 
3 19.8433 40.2437 26.0922 
4 6.5423 17.2787 27.4592 
4 19.5983 39.8937 27.4592 
5 6.3283 18.8567 25.5962 
5 19.3853 41.4717 25.5962 
2 7.5223 16.7487 25.1522 
2 20.5793 39.3638 25.1522 
9 7.7713 17.1188 3.21127 
9 20.8283 39.7338 3.21127 
9 5.7043 23.9027 25.2582 
9 18.7613 1.28775 25.2582 
8 3.0103 22.3937 25.9462 
8 16.0663 45.0087 25.9462 
10 4.4293 24.1207 0.435271 
10 17.4853 1.50575 0.435271 
2 5.2593 23.9327 3.31827 
2 18.3163 1.31775 3.31827 
3 5.6533 25.0097 2.37827 
3 18.7103 2.39475 2.37827 
4 5.2273 25.0467 1.01027 
4 18.2843 2.43175 1.01027 
5 6.4873 26.0207 2.87327 
5 19.5443 3.40575 2.87327 
6 6.8033 25.9677 24.6632 
6 19.8603 3.35275 24.6632 
8 4.4363 23.0318 2.89027 
8 17.4933 0.41675 2.89027 
2 6.9083 28.2067 27.4572 
2 19.9643 5.59175 27.4572 
3 6.5143 27.1297 0.730271 
3 19.5713 4.51475 0.730271 
4 6.9393 27.0927 2.09827 
4 19.9963 4.47775 2.09827 
5 5.6803 26.1197 0.235231 
5 18.7363 3.50475 0.235231 
6 5.3643 26.1717 26.8622 
6 18.4213 3.55675 26.8622 
9 6.4633 28.2377 26.2672 
9 19.5203 5.62275 26.2672 
8 7.7303 29.1078 0.21823 
8 20.7873 6.49275 0.21823 
10 7.7383 28.0187 2.67327 
10 20.7953 5.40375 2.67327 
2 1.8183 22.6557 26.3742 
2 14.8753 0.04075 26.3742 
3 0.6883 22.4577 25.4342 
3 13.7453 45.0727 25.4342 
5 12.4533 0.05975 25.9292 
5 25.5093 22.6747 25.9292 
6 12.3403 0.35975 26.9692 
6 25.3973 22.9748 26.9692 
9 1.6223 23.0558 27.5642 
9 14.6793 0.44075 27.5642 
10 6.9443 31.2007 25.7292 
10 20.0013 8.58575 25.7292 
6 5.3643 41.2488 3.80627 
6 18.4213 18.6337 3.80627 
10 10.0963 0.14475 25.7292 
10 23.1533 22.7597 25.7292 
4 11.2983 45.1457 25.1542 
4 24.3553 22.5307 25.1542 
4 6.5413 32.3557 25.1542 
4 19.5983 9.74075 25.1542 
6 25.9403 6.54975 3.80627 
6 12.8833 29.1647 3.80627 
6 6.5323 19.1037 3.80627 
6 19.5883 41.7188 3.80627 
7 4.8693 7.65175 8.25327 
7 17.9263 30.2667 8.25327 
7 3.7973 6.17675 5.94727 
7 16.8543 28.7918 5.94727 
7 3.0563 7.84375 10.5593 
7 16.1133 30.4588 10.5593 
7 7.2983 14.3347 6.38427 
7 20.3543 36.9498 6.38427 
7 8.3703 15.8098 8.68927 
7 21.4273 38.4247 8.68927 
7 9.1113 14.1427 4.07827 
7 22.1683 36.7577 4.07827 
7 8.3703 30.8858 6.38427 
7 21.4273 8.27075 6.38427 
7 9.1113 29.2197 8.68927 
7 22.1683 6.60475 8.68927 
7 3.7973 21.2538 10.5593 
7 16.8543 43.8687 10.5593 
7 8.3703 0.73275 4.07827 
7 21.4273 23.3478 4.07827 
7 4.8693 37.8047 10.5593 
7 17.9263 15.1898 10.5593 
7 7.2983 44.4877 8.68927 
7 20.3543 21.8727 8.68927 
7 9.1113 44.2967 6.38427 
7 22.1683 21.6817 6.38427 
7 3.0563 37.9968 5.94727 
7 16.1133 15.3817 5.94727 
7 3.7973 36.3308 8.25327 
7 16.8543 13.7157 8.25327 
7 4.8693 22.7287 5.94727 
7 17.9263 0.11375 5.94727 
7 3.0563 22.9197 8.25327 
7 16.1133 0.30475 8.25327 
7 7.2983 29.4117 4.07827 
7 20.3543 6.79675 4.07827 
2 5.2593 8.85575 5.62427 
2 18.3163 31.4707 5.62427 
3 5.6533 9.93275 4.68427 
3 18.7103 32.5478 4.68427 
5 6.4873 10.9437 5.17927 
5 19.5443 33.5588 5.17927 
6 6.8033 10.8918 6.21927 
6 19.8603 33.5067 6.21927 
9 5.7043 8.82575 6.81427 
9 18.7613 31.4407 6.81427 
8 4.4363 7.95475 5.19627 
8 17.4933 30.5698 5.19627 
10 7.7383 12.9427 4.97927 
10 20.7953 35.5578 4.97927 
8 4.2763 6.40075 9.80727 
8 17.3323 29.0157 9.80727 
8 3.0103 7.31675 7.50227 
8 16.0663 29.9317 7.50227 
10 4.4293 9.04375 9.65727 
10 17.4853 31.6587 9.65727 
10 5.2233 5.86275 7.35227 
10 18.2803 28.4778 7.35227 
4 5.2273 9.96975 10.2333 
4 18.2843 32.5847 10.2333 
2 6.9083 13.1307 9.01327 
2 19.9643 35.7458 9.01327 
3 6.5143 12.0538 9.95327 
3 19.5713 34.6688 9.95327 
4 6.9393 12.0168 4.40427 
4 19.9963 34.6317 4.40427 
5 5.6803 11.0427 9.45827 
5 18.7363 33.6578 9.45827 
6 5.3643 11.0948 8.41827 
6 18.4213 33.7097 8.41827 
9 6.4633 13.1608 7.82327 
9 19.5203 35.7758 7.82327 
8 7.7303 14.0318 9.44027 
8 20.7873 36.6467 9.44027 
8 7.8913 15.5858 4.82927 
8 20.9483 38.2007 4.82927 
8 9.1573 14.6698 7.13527 
8 22.2143 37.2847 7.13527 
10 6.9443 16.1237 7.28527 
10 20.0013 38.7388 7.28527 
8 9.1573 29.7457 4.82927 
8 22.2143 7.13075 4.82927 
8 7.8913 30.6627 9.44027 
8 20.9483 8.04775 9.44027 
8 4.2763 21.4767 7.50227 
8 17.3323 44.0917 7.50227 
10 5.2233 20.9398 5.04627 
10 18.2803 43.5547 5.04627 
8 7.8913 0.50975 7.13527 
8 20.9483 23.1247 7.13527 
10 6.9443 1.04675 9.59027 
10 20.0013 23.6617 9.59027 
10 4.4293 39.1978 5.04627 
10 17.4853 16.5827 5.04627 
2 5.2593 39.0098 7.92927 
2 18.3163 16.3947 7.92927 
3 5.6533 40.0868 6.99027 
3 18.7103 17.4717 6.99027 
4 5.2273 40.1238 5.62227 
4 18.2843 17.5087 5.62227 
5 6.4873 41.0967 7.48527 
5 19.5443 18.4817 7.48527 
6 6.8033 41.0448 8.52427 
6 19.8603 18.4297 8.52427 
9 5.7043 38.9787 9.11927 
9 18.7613 16.3637 9.11927 
8 4.4373 38.1087 7.50227 
8 17.4933 15.4937 7.50227 
3 6.5143 42.2067 5.34227 
3 19.5713 19.5917 5.34227 
4 6.9393 42.1698 6.70927 
4 19.9963 19.5547 6.70927 
5 5.6803 41.1957 4.84627 
5 18.7363 18.5807 4.84627 
8 7.7303 44.1848 4.82927 
8 20.7873 21.5698 4.82927 
10 7.7383 43.0957 7.28527 
10 20.7953 20.4808 7.28527 
10 5.2233 36.0158 9.65727 
10 18.2803 13.4008 9.65727 
2 6.9083 43.2837 4.40227 
2 19.9643 20.6687 4.40227 
9 6.4633 43.3137 10.1283 
9 19.5203 20.6988 10.1283 
8 9.1573 44.8228 9.44027 
8 22.2143 22.2077 9.44027 
8 4.2763 36.5538 5.19627 
8 17.3333 13.9388 5.19627 
8 3.0103 37.4707 9.80727 
8 16.0663 14.8558 9.80727 
10 2.0703 21.8417 9.65727 
10 15.1273 44.4567 9.65727 
4 0.8693 22.0708 10.2333 
4 13.9263 44.6857 10.2333 
2 10.3493 44.5607 9.01327 
2 23.4063 21.9458 9.01327 
3 11.4793 44.7588 9.95327 
3 24.5353 22.1437 9.95327 
5 25.8283 21.9267 9.45827 
5 12.7713 44.5417 9.45827 
6 25.9403 21.6267 8.41827 
6 12.8833 44.2417 8.41827 
9 10.5453 44.1607 7.82327 
9 23.6023 21.5458 7.82327 
4 5.6253 34.8607 10.2333 
4 18.6823 12.2457 10.2333 
2 7.5223 31.8257 9.01327 
2 20.5793 9.21075 9.01327 
3 6.7863 32.7058 9.95327 
3 19.8433 10.0907 9.95327 
5 6.3283 33.9338 9.45827 
5 19.3853 11.3187 9.45827 
6 6.5323 34.1807 8.41827 
6 19.5883 11.5657 8.41827 
9 7.7713 32.1957 7.82327 
9 20.8283 9.58075 7.82327 
10 10.0963 30.2977 7.28527 
10 23.1533 7.68275 7.28527 
2 4.6453 35.3908 5.62427 
2 17.7013 12.7758 5.62427 
3 5.3813 34.5108 4.68427 
3 18.4373 11.8958 4.68427 
5 5.8393 33.2828 5.17927 
5 18.8963 10.6677 5.17927 
6 5.6353 33.0357 6.21927 
6 18.6923 10.4207 6.21927 
9 4.3963 35.0207 6.81427 
9 17.4533 12.4058 6.81427 
10 2.0703 36.9188 7.35227 
10 15.1273 14.3038 7.35227 
9 1.6223 38.1327 4.50827 
9 14.6793 15.5178 4.50827 
2 1.8183 37.7318 10.2353 
2 14.8753 15.1167 10.2353 
3 0.6883 37.5347 9.29527 
3 13.7453 14.9198 9.29527 
4 0.8693 37.1478 7.92727 
4 13.9263 14.5327 7.92727 
5 12.4533 15.1367 9.79027 
5 25.5093 37.7518 9.79027 
6 12.3403 15.4367 3.91327 
6 25.3973 38.0518 3.91327 
2 10.3493 14.4077 6.70727 
2 23.4063 37.0228 6.70727 
3 11.4793 14.6048 7.64727 
3 24.5353 37.2197 7.64727 
4 11.2983 14.9917 9.01527 
4 24.3543 37.6068 9.01527 
5 25.8283 37.0028 7.15227 
5 12.7713 14.3877 7.15227 
6 25.9413 36.7027 6.11227 
6 12.8833 14.0877 6.11227 
9 10.5453 14.0077 5.51727 
9 23.6023 36.6227 5.51727 
10 10.0963 15.2208 9.59027 
10 23.1533 37.8358 9.59027 
9 4.3963 4.86775 4.50827 
9 17.4533 27.4828 4.50827 
10 2.0703 6.76575 5.04627 
10 15.1273 29.3807 5.04627 
2 4.6453 5.23775 10.2353 
2 17.7013 27.8527 10.2353 
3 5.3813 4.35775 9.29527 
3 18.4373 26.9728 9.29527 
4 5.6253 4.70775 7.92727 
4 18.6823 27.3227 7.92727 
5 5.8393 3.12975 9.79027 
5 18.8953 25.7447 9.79027 
6 5.6353 2.88275 3.91327 
6 18.6923 25.4977 3.91327 
2 7.5223 1.67275 6.70727 
2 20.5793 24.2877 6.70727 
3 6.7863 2.55175 7.64727 
3 19.8433 25.1668 7.64727 
4 6.5423 2.20175 9.01527 
4 19.5983 24.8168 9.01527 
5 6.3283 3.77975 7.15227 
5 19.3853 26.3947 7.15227 
6 6.5323 4.02675 6.11227 
6 19.5883 26.6417 6.11227 
9 7.7713 2.04275 5.51727 
9 20.8283 24.6578 5.51727 
2 1.8183 7.57875 7.92927 
2 14.8753 30.1937 7.92927 
3 0.6883 7.38175 6.99027 
3 13.7453 29.9968 6.99027 
4 0.8693 6.99475 5.62227 
4 13.9263 29.6097 5.62227 
5 12.4533 30.2137 7.48527 
5 25.5093 7.59875 7.48527 
6 12.3403 30.5137 8.52427 
6 25.3973 7.89875 8.52427 
9 1.6223 7.97875 9.11927 
9 14.6793 30.5938 9.11927 
3 11.4793 29.6817 5.34227 
3 24.5353 7.06675 5.34227 
4 11.2983 30.0687 6.70927 
4 24.3543 7.45375 6.70927 
5 25.8283 6.84975 4.84627 
5 12.7713 29.4647 4.84627 
2 10.3493 29.4847 4.40227 
2 23.4063 6.86975 4.40227 
9 10.5453 29.0838 10.1283 
9 23.6023 6.46875 10.1283 
2 4.6453 20.3137 7.92927 
2 17.7013 42.9288 7.92927 
3 5.3813 19.4348 6.99027 
3 18.4373 42.0497 6.99027 
4 5.6253 19.7848 5.62227 
4 18.6823 42.3998 5.62227 
5 5.8393 18.2067 7.48527 
5 18.8963 40.8218 7.48527 
6 5.6353 17.9597 8.52427 
6 18.6923 40.5748 8.52427 
9 4.3963 19.9437 9.11927 
9 17.4533 42.5588 9.11927 
3 6.7863 17.6288 5.34227 
3 19.8433 40.2437 5.34227 
4 6.5423 17.2787 6.70927 
4 19.5983 39.8937 6.70927 
5 6.3283 18.8567 4.84627 
5 19.3853 41.4717 4.84627 
2 7.5223 16.7487 4.40227 
2 20.5793 39.3638 4.40227 
9 7.7713 17.1188 10.1283 
9 20.8283 39.7338 10.1283 
9 5.7043 23.9027 4.50827 
9 18.7613 1.28775 4.50827 
8 3.0103 22.3937 5.19627 
8 16.0663 45.0087 5.19627 
10 4.4293 24.1207 7.35227 
10 17.4853 1.50575 7.35227 
2 5.2593 23.9327 10.2353 
2 18.3163 1.31775 10.2353 
3 5.6533 25.0097 9.29527 
3 18.7103 2.39475 9.29527 
4 5.2273 25.0467 7.92727 
4 18.2843 2.43175 7.92727 
5 6.4873 26.0207 9.79027 
5 19.5443 3.40575 9.79027 
6 6.8033 25.9677 3.91327 
6 19.8603 3.35275 3.91327 
8 4.4363 23.0318 9.80727 
8 17.4933 0.41675 9.80727 
2 6.9083 28.2067 6.70727 
2 19.9643 5.59175 6.70727 
3 6.5143 27.1297 7.64727 
3 19.5713 4.51475 7.64727 
4 6.9393 27.0927 9.01527 
4 19.9963 4.47775 9.01527 
5 5.6803 26.1197 7.15227 
5 18.7363 3.50475 7.15227 
6 5.3643 26.1717 6.11227 
6 18.4213 3.55675 6.11227 
9 6.4633 28.2377 5.51727 
9 19.5203 5.62275 5.51727 
8 7.7303 29.1078 7.13527 
8 20.7873 6.49275 7.13527 
10 7.7383 28.0187 9.59027 
10 20.7953 5.40375 9.59027 
2 1.8183 22.6557 5.62427 
2 14.8753 0.04075 5.62427 
3 0.6883 22.4577 4.68427 
3 13.7453 45.0727 4.68427 
5 12.4533 0.05975 5.17927 
5 25.5093 22.6747 5.17927 
6 12.3403 0.35975 6.21927 
6 25.3973 22.9748 6.21927 
9 1.6223 23.0558 6.81427 
9 14.6793 0.44075 6.81427 
10 6.9443 31.2007 4.97927 
10 20.0013 8.58575 4.97927 
6 5.3643 41.2488 10.7233 
6 18.4213 18.6337 10.7233 
10 10.0963 0.14475 4.97927 
10 23.1533 22.7597 4.97927 
4 11.2983 45.1457 4.40427 
4 24.3553 22.5307 4.40427 
4 6.5413 32.3557 4.40427 
4 19.5983 9.74075 4.40427 
6 25.9403 6.54975 10.7233 
6 12.8833 29.1647 10.7233 
6 6.5323 19.1037 10.7233 
6 19.5883 41.7188 10.7233 
7 4.8693 7.65175 15.1703 
7 17.9263 30.2667 15.1703 
7 3.7973 6.17675 12.8643 
7 16.8543 28.7918 12.8643 
7 3.0563 7.84375 17.4763 
7 16.1133 30.4588 17.4763 
7 7.2983 14.3347 13.3013 
7 20.3543 36.9498 13.3013 
7 8.3703 15.8098 15.6063 
7 21.4273 38.4247 15.6063 
7 9.1113 14.1427 10.9953 
7 22.1683 36.7577 10.9953 
7 8.3703 30.8858 13.3013 
7 21.4273 8.27075 13.3013 
7 9.1113 29.2197 15.6063 
7 22.1683 6.60475 15.6063 
7 3.7973 21.2538 17.4763 
7 16.8543 43.8687 17.4763 
7 8.3703 0.73275 10.9953 
7 21.4273 23.3478 10.9953 
7 4.8693 37.8047 17.4763 
7 17.9263 15.1898 17.4763 
7 7.2983 44.4877 15.6063 
7 20.3543 21.8727 15.6063 
7 9.1113 44.2967 13.3013 
7 22.1683 21.6817 13.3013 
7 3.0563 37.9968 12.8643 
7 16.1133 15.3817 12.8643 
7 3.7973 36.3308 15.1703 
7 16.8543 13.7157 15.1703 
7 4.8693 22.7287 12.8643 
7 17.9263 0.11375 12.8643 
7 3.0563 22.9197 15.1703 
7 16.1133 0.30475 15.1703 
7 7.2983 29.4117 10.9953 
7 20.3543 6.79675 10.9953 
2 5.2593 8.85575 12.5413 
2 18.3163 31.4707 12.5413 
3 5.6533 9.93275 11.6013 
3 18.7103 32.5478 11.6013 
5 6.4873 10.9437 12.0963 
5 19.5443 33.5588 12.0963 
6 6.8033 10.8918 13.1363 
6 19.8603 33.5067 13.1363 
9 5.7043 8.82575 13.7313 
9 18.7613 31.4407 13.7313 
8 4.4363 7.95475 12.1133 
8 17.4933 30.5698 12.1133 
10 7.7383 12.9427 11.8963 
10 20.7953 35.5578 11.8963 
8 4.2763 6.40075 16.7243 
8 17.3323 29.0157 16.7243 
8 3.0103 7.31675 14.4193 
8 16.0663 29.9317 14.4193 
10 4.4293 9.04375 16.5743 
10 17.4853 31.6587 16.5743 
10 5.2233 5.86275 14.2693 
10 18.2803 28.4778 14.2693 
4 5.2273 9.96975 17.1503 
4 18.2843 32.5847 17.1503 
2 6.9083 13.1307 15.9303 
2 19.9643 35.7458 15.9303 