LAMMPS data file. CGCMM style. atom_style full generated by VMD/TopoTools v1.5 on Sun Apr 09 11:01:27 PDT 2017
 4371 atoms
 1186 bonds
 0 angles
 0 dihedrals
 0 impropers
 11 atom types
 1 bond types
 0 angle types
 0 dihedral types
 0 improper types
 0.451838 52.642840  xlo xhi
 0.325101 45.523500  ylo yhi
 -0.040620 27.486621  zlo zhi

# Pair Coeffs
#
# 1  Ca
# 2  Cb
# 3  Cc
# 4  Cd
# 5  Cg
# 6  H
# 7  Oa
# 8  Ob
# 9  Oc
# 10  Og
# 11  Zn

 Masses

 1 12.011000 # Ca
 2 12.011000 # Cb
 3 12.011000 # Cc
 4 12.011000 # Cd
 5 12.011000 # Cg
 6 1.008000 # H
 7 15.999000 # Oa
 8 15.999000 # Ob
 9 15.999000 # Oc
 10 15.999000 # Og
 11 65.379997 # Zn

 Atoms

1 1 10 -0.325600 52.190678 45.197601 16.176001 # Og 
2 1 5 0.651200 52.190678 45.197601 15.016001 # Cg 
3 1 10 -0.325600 52.190678 45.197601 13.856001 # Og 
4 2 10 -0.325600 52.190678 45.197601 16.360001 # Og 
5 2 5 0.651200 52.190678 45.197601 15.200001 # Cg 
6 2 10 -0.325600 52.190678 45.197601 14.040000 # Og 
7 3 10 -0.325600 52.190678 45.197601 16.545000 # Og 
8 3 5 0.651200 52.190678 45.197601 15.385000 # Cg 
9 3 10 -0.325600 52.190678 45.197601 14.225000 # Og 
10 4 10 -0.325600 52.190678 45.197601 16.730000 # Og 
11 4 5 0.651200 52.190678 45.197601 15.570001 # Cg 
12 4 10 -0.325600 52.190678 45.197601 14.410001 # Og 
13 5 10 -0.325600 52.190678 45.197601 16.915001 # Og 
14 5 5 0.651200 52.190678 45.197601 15.755000 # Cg 
15 5 10 -0.325600 52.190678 45.197601 14.595000 # Og 
16 6 10 -0.325600 52.190678 45.197601 17.098999 # Og 
17 6 5 0.651200 52.190678 45.197601 15.939000 # Cg 
18 6 10 -0.325600 52.190678 45.197601 14.779000 # Og 
19 7 10 -0.325600 52.190678 45.197601 17.284000 # Og 
20 7 5 0.651200 52.190678 45.197601 16.124001 # Cg 
21 7 10 -0.325600 52.190678 45.197601 14.964001 # Og 
22 8 10 -0.325600 52.190678 45.197601 17.469002 # Og 
23 8 5 0.651200 52.190678 45.197601 16.309000 # Cg 
24 8 10 -0.325600 52.190678 45.197601 15.149000 # Og 
25 9 10 -0.325600 52.190678 45.197601 17.653999 # Og 
26 9 5 0.651200 52.190678 45.197601 16.493999 # Cg 
27 9 10 -0.325600 52.190678 45.197601 15.334001 # Og 
28 10 10 -0.325600 52.190678 45.197601 17.838001 # Og 
29 10 5 0.651200 52.190678 45.197601 16.678001 # Cg 
30 10 10 -0.325600 52.190678 45.197601 15.518001 # Og 
31 11 10 -0.325600 52.190678 45.197601 18.023001 # Og 
32 11 5 0.651200 52.190678 45.197601 16.863001 # Cg 
33 11 10 -0.325600 52.190678 45.197601 15.703000 # Og 
34 12 10 -0.325600 52.190678 45.197601 18.208000 # Og 
35 12 5 0.651200 52.190678 45.197601 17.048000 # Cg 
36 12 10 -0.325600 52.190678 45.197601 15.888000 # Og 
37 13 10 -0.325600 52.190678 45.197601 18.393002 # Og 
38 13 5 0.651200 52.190678 45.197601 17.233002 # Cg 
39 13 10 -0.325600 52.190678 45.197601 16.073000 # Og 
40 14 10 -0.325600 52.190678 45.197601 18.577000 # Og 
41 14 5 0.651200 52.190678 45.197601 17.417000 # Cg 
42 14 10 -0.325600 52.190678 45.197601 16.257000 # Og 
43 15 10 -0.325600 52.190678 45.197601 18.762001 # Og 
44 15 5 0.651200 52.190678 45.197601 17.602001 # Cg 
45 15 10 -0.325600 52.190678 45.197601 16.442001 # Og 
46 16 10 -0.325600 52.190678 45.197601 18.947001 # Og 
47 16 5 0.651200 52.190678 45.197601 17.787001 # Cg 
48 16 10 -0.325600 52.190678 45.197601 16.627001 # Og 
49 17 10 -0.325600 52.190678 45.197601 19.132000 # Og 
50 17 5 0.651200 52.190678 45.197601 17.972000 # Cg 
51 17 10 -0.325600 52.190678 45.197601 16.812000 # Og 
52 18 10 -0.325600 52.190678 45.197601 19.316000 # Og 
53 18 5 0.651200 52.190678 45.197601 18.156000 # Cg 
54 18 10 -0.325600 52.190678 45.197601 16.996000 # Og 
55 19 10 -0.325600 52.190678 45.197601 19.500999 # Og 
56 19 5 0.651200 52.190678 45.197601 18.341000 # Cg 
57 19 10 -0.325600 52.190678 45.197601 17.181000 # Og 
58 20 10 -0.325600 52.190678 45.197601 19.686001 # Og 
59 20 5 0.651200 52.190678 45.197601 18.526001 # Cg 
60 20 10 -0.325600 52.190678 45.197601 17.366001 # Og 
61 21 10 -0.325600 52.190678 45.197601 19.871000 # Og 
62 21 5 0.651200 52.190678 45.197601 18.711000 # Cg 
63 21 10 -0.325600 52.190678 45.197601 17.551001 # Og 
64 22 10 -0.325600 52.190678 45.197601 20.055000 # Og 
65 22 5 0.651200 52.190678 45.197601 18.895000 # Cg 
66 22 10 -0.325600 52.190678 45.197601 17.735001 # Og 
67 23 10 -0.325600 52.190678 45.197601 20.240000 # Og 
68 23 5 0.651200 52.190678 45.197601 19.080002 # Cg 
69 23 10 -0.325600 52.190678 45.197601 17.920000 # Og 
70 24 10 -0.325600 52.190678 45.197601 20.424999 # Og 
71 24 5 0.651200 52.190678 45.197601 19.264999 # Cg 
72 24 10 -0.325600 52.190678 45.197601 18.105000 # Og 
73 25 10 -0.325600 52.190678 45.197601 20.610001 # Og 
74 25 5 0.651200 52.190678 45.197601 19.450001 # Cg 
75 25 10 -0.325600 52.190678 45.197601 18.290001 # Og 
76 26 10 -0.325600 52.190678 45.197601 20.794001 # Og 
77 26 5 0.651200 52.190678 45.197601 19.634001 # Cg 
78 26 10 -0.325600 52.190678 45.197601 18.473999 # Og 
79 27 10 -0.325600 52.190678 45.197601 20.979000 # Og 
80 27 5 0.651200 52.190678 45.197601 19.819000 # Cg 
81 27 10 -0.325600 52.190678 45.197601 18.659000 # Og 
82 28 10 -0.325600 52.190678 45.197601 21.164001 # Og 
83 28 5 0.651200 52.190678 45.197601 20.004002 # Cg 
84 28 10 -0.325600 52.190678 45.197601 18.844002 # Og 
85 29 10 -0.325600 52.190678 45.197601 21.349001 # Og 
86 29 5 0.651200 52.190678 45.197601 20.189001 # Cg 
87 29 10 -0.325600 52.190678 45.197601 19.028999 # Og 
88 30 10 -0.325600 52.190678 45.197601 21.533001 # Og 
89 30 5 0.651200 52.190678 45.197601 20.373001 # Cg 
90 30 10 -0.325600 52.190678 45.197601 19.213001 # Og 
91 31 10 -0.325600 52.190678 45.197601 21.718000 # Og 
92 31 5 0.651200 52.190678 45.197601 20.558001 # Cg 
93 31 10 -0.325600 52.190678 45.197601 19.398001 # Og 
94 32 10 -0.325600 52.190678 45.197601 21.903000 # Og 
95 32 5 0.651200 52.190678 45.197601 20.743000 # Cg 
96 32 10 -0.325600 52.190678 45.197601 19.583000 # Og 
97 33 10 -0.325600 52.190678 45.197601 22.088001 # Og 
98 33 5 0.651200 52.190678 45.197601 20.928001 # Cg 
99 33 10 -0.325600 52.190678 45.197601 19.768002 # Og 
100 34 10 -0.325600 52.190678 45.197601 22.271999 # Og 
101 34 5 0.651200 52.190678 45.197601 21.112000 # Cg 
102 34 10 -0.325600 52.190678 45.197601 19.952000 # Og 
103 35 10 -0.325600 52.190678 45.197601 22.457001 # Og 
104 35 5 0.651200 52.190678 45.197601 21.297001 # Cg 
105 35 10 -0.325600 52.190678 45.197601 20.137001 # Og 
106 36 10 -0.325600 52.190678 45.197601 22.642000 # Og 
107 36 5 0.651200 52.190678 45.197601 21.482000 # Cg 
108 36 10 -0.325600 52.190678 45.197601 20.322001 # Og 
109 37 10 -0.325600 52.190678 45.197601 22.827000 # Og 
110 37 5 0.651200 52.190678 45.197601 21.667000 # Cg 
111 37 10 -0.325600 52.190678 45.197601 20.507000 # Og 
112 38 10 -0.325600 52.190678 45.197601 23.011002 # Og 
113 38 5 0.651200 52.190678 45.197601 21.851000 # Cg 
114 38 10 -0.325600 52.190678 45.197601 20.691000 # Og 
115 39 10 -0.325600 52.190678 45.197601 23.196001 # Og 
116 39 5 0.651200 52.190678 45.197601 22.035999 # Cg 
117 39 10 -0.325600 52.190678 45.197601 20.875999 # Og 
118 40 10 -0.325600 52.190678 45.197601 23.381001 # Og 
119 40 5 0.651200 52.190678 45.197601 22.221001 # Cg 
120 40 10 -0.325600 52.190678 45.197601 21.061001 # Og 
121 41 10 -0.325600 52.190678 45.197601 23.566000 # Og 
122 41 5 0.651200 52.190678 45.197601 22.406000 # Cg 
123 41 10 -0.325600 52.190678 45.197601 21.246000 # Og 
124 42 10 -0.325600 52.190678 45.197601 23.750000 # Og 
125 42 5 0.651200 52.190678 45.197601 22.590000 # Cg 
126 42 10 -0.325600 52.190678 45.197601 21.430000 # Og 
127 43 10 -0.325600 52.190678 45.197601 23.935001 # Og 
128 43 5 0.651200 52.190678 45.197601 22.775002 # Cg 
129 43 10 -0.325600 52.190678 45.197601 21.615000 # Og 
130 44 10 -0.325600 52.190678 45.197601 24.120001 # Og 
131 44 5 0.651200 52.190678 45.197601 22.960001 # Cg 
132 44 10 -0.325600 52.190678 45.197601 21.799999 # Og 
133 45 10 -0.325600 52.190678 45.197601 24.305000 # Og 
134 45 5 0.651200 52.190678 45.197601 23.145000 # Cg 
135 45 10 -0.325600 52.190678 45.197601 21.985001 # Og 
136 46 10 -0.325600 52.190678 45.197601 24.489000 # Og 
137 46 5 0.651200 52.190678 45.197601 23.329000 # Cg 
138 46 10 -0.325600 52.190678 45.197601 22.169001 # Og 
139 47 10 -0.325600 52.190678 45.197601 24.674000 # Og 
140 47 5 0.651200 52.190678 45.197601 23.514000 # Cg 
141 47 10 -0.325600 52.190678 45.197601 22.354000 # Og 
142 48 10 -0.325600 52.190678 45.197601 24.859001 # Og 
143 48 5 0.651200 52.190678 45.197601 23.699001 # Cg 
144 48 10 -0.325600 52.190678 45.197601 22.539001 # Og 
145 49 10 -0.325600 52.190678 45.197601 25.044001 # Og 
146 49 5 0.651200 52.190678 45.197601 23.884001 # Cg 
147 49 10 -0.325600 52.190678 45.197601 22.724001 # Og 
148 50 10 -0.325600 52.190678 45.197601 25.228001 # Og 
149 50 5 0.651200 52.190678 45.197601 24.068001 # Cg 
150 50 10 -0.325600 52.190678 45.197601 22.908001 # Og 
151 51 10 -0.325600 52.190678 45.197601 25.413000 # Og 
152 51 5 0.651200 52.190678 45.197601 24.253000 # Cg 
153 51 10 -0.325600 52.190678 45.197601 23.093000 # Og 
154 52 10 -0.325600 52.190678 45.197601 25.598000 # Og 
155 52 5 0.651200 52.190678 45.197601 24.438000 # Cg 
156 52 10 -0.325600 52.190678 45.197601 23.278000 # Og 
157 53 10 -0.325600 52.190678 45.197601 25.783001 # Og 
158 53 5 0.651200 52.190678 45.197601 24.623001 # Cg 
159 53 10 -0.325600 52.190678 45.197601 23.463001 # Og 
160 54 10 -0.325600 52.190678 45.197601 25.967001 # Og 
161 54 5 0.651200 52.190678 45.197601 24.807001 # Cg 
162 54 10 -0.325600 52.190678 45.197601 23.646999 # Og 
163 55 10 -0.325600 52.190678 45.197601 26.152000 # Og 
164 55 5 0.651200 52.190678 45.197601 24.992001 # Cg 
165 55 10 -0.325600 52.190678 45.197601 23.832001 # Og 
166 56 10 -0.325600 52.190678 45.197601 26.337000 # Og 
167 56 5 0.651200 52.190678 45.197601 25.177000 # Cg 
168 56 10 -0.325600 52.190678 45.197601 24.017000 # Og 
169 57 10 -0.325600 52.190678 45.197601 26.522001 # Og 
170 57 5 0.651200 52.190678 45.197601 25.362000 # Cg 
171 57 10 -0.325600 52.190678 45.197601 24.202000 # Og 
172 58 10 -0.325600 52.190678 45.197601 26.706001 # Og 
173 58 5 0.651200 52.190678 45.197601 25.546001 # Cg 
174 58 10 -0.325600 52.190678 45.197601 24.386000 # Og 
175 59 10 -0.325600 52.190678 45.197601 26.891001 # Og 
176 59 5 0.651200 52.190678 45.197601 25.731001 # Cg 
177 59 10 -0.325600 52.190678 45.197601 24.571001 # Og 
178 60 10 -0.325600 52.190678 45.197601 27.076000 # Og 
179 60 5 0.651200 52.190678 45.197601 25.916000 # Cg 
180 60 10 -0.325600 52.190678 45.197601 24.756001 # Og 
181 61 10 -0.325600 52.190678 45.197601 27.261000 # Og 
182 61 5 0.651200 52.190678 45.197601 26.101000 # Cg 
183 61 10 -0.325600 52.190678 45.197601 24.941000 # Og 
184 62 10 -0.325600 52.190678 45.197601 27.445000 # Og 
185 62 5 0.651200 52.190678 45.197601 26.285000 # Cg 
186 62 10 -0.325600 52.190678 45.197601 25.125000 # Og 
187 63 10 -0.325600 52.190678 45.197601 0.103000 # Og 
188 63 5 0.651200 52.190678 45.197601 26.470001 # Cg 
189 63 10 -0.325600 52.190678 45.197601 25.310001 # Og 
190 64 10 -0.325600 52.190678 45.197601 0.288000 # Og 
191 64 5 0.651200 52.190678 45.197601 26.655001 # Cg 
192 64 10 -0.325600 52.190678 45.197601 25.495001 # Og 
193 65 10 -0.325600 52.190678 45.197601 0.473000 # Og 
194 65 5 0.651200 52.190678 45.197601 26.840000 # Cg 
195 65 10 -0.325600 52.190678 45.197601 25.680000 # Og 
196 66 10 -0.325600 52.190678 45.197601 0.657000 # Og 
197 66 5 0.651200 52.190678 45.197601 27.024000 # Cg 
198 66 10 -0.325600 52.190678 45.197601 25.864000 # Og 
199 67 10 -0.325600 52.190678 45.197601 0.842000 # Og 
200 67 5 0.651200 52.190678 45.197601 27.209000 # Cg 
201 67 10 -0.325600 52.190678 45.197601 26.049000 # Og 
202 68 10 -0.325600 52.190678 45.197601 1.027000 # Og 
203 68 5 0.651200 52.190678 45.197601 27.394001 # Cg 
204 68 10 -0.325600 52.190678 45.197601 26.234001 # Og 
205 69 10 -0.325600 52.190678 45.197601 1.212000 # Og 
206 69 5 0.651200 52.190678 45.197601 0.052000 # Cg 
207 69 10 -0.325600 52.190678 45.197601 26.419001 # Og 
208 70 10 -0.325600 52.190678 45.197601 1.396000 # Og 
209 70 5 0.651200 52.190678 45.197601 0.236000 # Cg 
210 70 10 -0.325600 52.190678 45.197601 26.603001 # Og 
211 71 10 -0.325600 52.190678 45.197601 1.581000 # Og 
212 71 5 0.651200 52.190678 45.197601 0.421000 # Cg 
213 71 10 -0.325600 52.190678 45.197601 26.788000 # Og 
214 72 10 -0.325600 52.190678 45.197601 1.766000 # Og 
215 72 5 0.651200 52.190678 45.197601 0.606000 # Cg 
216 72 10 -0.325600 52.190678 45.197601 26.973000 # Og 
217 73 10 -0.325600 52.190678 45.197601 1.951000 # Og 
218 73 5 0.651200 52.190678 45.197601 0.791000 # Cg 
219 73 10 -0.325600 52.190678 45.197601 27.158001 # Og 
220 74 10 -0.325600 52.190678 45.197601 2.135000 # Og 
221 74 5 0.651200 52.190678 45.197601 0.975000 # Cg 
222 74 10 -0.325600 52.190678 45.197601 27.342001 # Og 
223 75 10 -0.325600 52.190678 45.197601 2.320000 # Og 
224 75 5 0.651200 52.190678 45.197601 1.160000 # Cg 
225 75 10 -0.325600 52.190678 45.197601 0.000000 # Og 
226 76 10 -0.325600 52.190678 45.197601 2.505000 # Og 
227 76 5 0.651200 52.190678 45.197601 1.345000 # Cg 
228 76 10 -0.325600 52.190678 45.197601 0.185000 # Og 
229 77 10 -0.325600 52.190678 45.197601 2.689000 # Og 
230 77 5 0.651200 52.190678 45.197601 1.529000 # Cg 
231 77 10 -0.325600 52.190678 45.197601 0.369000 # Og 
232 78 10 -0.325600 52.190678 45.197601 2.874000 # Og 
233 78 5 0.651200 52.190678 45.197601 1.714000 # Cg 
234 78 10 -0.325600 52.190678 45.197601 0.554000 # Og 
235 79 10 -0.325600 52.190678 45.197601 3.059000 # Og 
236 79 5 0.651200 52.190678 45.197601 1.899000 # Cg 
237 79 10 -0.325600 52.190678 45.197601 0.739000 # Og 
238 80 10 -0.325600 52.190678 45.197601 3.244000 # Og 
239 80 5 0.651200 52.190678 45.197601 2.084000 # Cg 
240 80 10 -0.325600 52.190678 45.197601 0.924000 # Og 
241 81 10 -0.325600 52.190678 45.197601 3.428000 # Og 
242 81 5 0.651200 52.190678 45.197601 2.268000 # Cg 
243 81 10 -0.325600 52.190678 45.197601 1.108000 # Og 
244 82 10 -0.325600 52.190678 45.197601 3.613000 # Og 
245 82 5 0.651200 52.190678 45.197601 2.453000 # Cg 
246 82 10 -0.325600 52.190678 45.197601 1.293000 # Og 
247 83 10 -0.325600 52.190678 45.197601 3.798000 # Og 
248 83 5 0.651200 52.190678 45.197601 2.638000 # Cg 
249 83 10 -0.325600 52.190678 45.197601 1.478000 # Og 
250 84 10 -0.325600 52.190678 45.197601 3.983000 # Og 
251 84 5 0.651200 52.190678 45.197601 2.823000 # Cg 
252 84 10 -0.325600 52.190678 45.197601 1.663000 # Og 
253 85 10 -0.325600 52.190678 45.197601 4.167000 # Og 
254 85 5 0.651200 52.190678 45.197601 3.007000 # Cg 
255 85 10 -0.325600 52.190678 45.197601 1.847000 # Og 
256 86 10 -0.325600 52.190678 45.197601 4.352000 # Og 
257 86 5 0.651200 52.190678 45.197601 3.192000 # Cg 
258 86 10 -0.325600 52.190678 45.197601 2.032000 # Og 
259 87 10 -0.325600 52.190678 45.197601 4.537000 # Og 
260 87 5 0.651200 52.190678 45.197601 3.377000 # Cg 
261 87 10 -0.325600 52.190678 45.197601 2.217000 # Og 
262 88 10 -0.325600 52.190678 45.197601 4.722000 # Og 
263 88 5 0.651200 52.190678 45.197601 3.562000 # Cg 
264 88 10 -0.325600 52.190678 45.197601 2.402000 # Og 
265 89 10 -0.325600 52.190678 45.197601 4.906000 # Og 
266 89 5 0.651200 52.190678 45.197601 3.746000 # Cg 
267 89 10 -0.325600 52.190678 45.197601 2.586000 # Og 
268 90 10 -0.325600 52.190678 45.197601 5.091000 # Og 
269 90 5 0.651200 52.190678 45.197601 3.931000 # Cg 
270 90 10 -0.325600 52.190678 45.197601 2.771000 # Og 
271 91 10 -0.325600 52.190678 45.197601 5.276000 # Og 
272 91 5 0.651200 52.190678 45.197601 4.116000 # Cg 
273 91 10 -0.325600 52.190678 45.197601 2.956000 # Og 
274 92 10 -0.325600 52.190678 45.197601 5.461000 # Og 
275 92 5 0.651200 52.190678 45.197601 4.301000 # Cg 
276 92 10 -0.325600 52.190678 45.197601 3.141000 # Og 
277 93 10 -0.325600 52.190678 45.197601 5.645000 # Og 
278 93 5 0.651200 52.190678 45.197601 4.485000 # Cg 
279 93 10 -0.325600 52.190678 45.197601 3.325000 # Og 
280 94 10 -0.325600 52.190678 45.197601 5.830000 # Og 
281 94 5 0.651200 52.190678 45.197601 4.670000 # Cg 
282 94 10 -0.325600 52.190678 45.197601 3.510000 # Og 
283 95 10 -0.325600 52.190678 45.197601 6.015000 # Og 
284 95 5 0.651200 52.190678 45.197601 4.855000 # Cg 
285 95 10 -0.325600 52.190678 45.197601 3.695000 # Og 
286 96 10 -0.325600 52.190678 45.197601 6.200000 # Og 
287 96 5 0.651200 52.190678 45.197601 5.040000 # Cg 
288 96 10 -0.325600 52.190678 45.197601 3.880000 # Og 
289 97 10 -0.325600 52.190678 45.197601 6.384000 # Og 
290 97 5 0.651200 52.190678 45.197601 5.224000 # Cg 
291 97 10 -0.325600 52.190678 45.197601 4.064000 # Og 
292 98 10 -0.325600 52.190678 45.197601 6.569000 # Og 
293 98 5 0.651200 52.190678 45.197601 5.409000 # Cg 
294 98 10 -0.325600 52.190678 45.197601 4.249000 # Og 
295 99 10 -0.325600 52.190678 45.197601 6.754000 # Og 
296 99 5 0.651200 52.190678 45.197601 5.594000 # Cg 
297 99 10 -0.325600 52.190678 45.197601 4.434000 # Og 
298 100 10 -0.325600 52.190678 45.197601 6.939000 # Og 
299 100 5 0.651200 52.190678 45.197601 5.779000 # Cg 
300 100 10 -0.325600 52.190678 45.197601 4.619000 # Og 
301 101 10 -0.325600 52.190678 45.197601 7.123000 # Og 
302 101 5 0.651200 52.190678 45.197601 5.963000 # Cg 
303 101 10 -0.325600 52.190678 45.197601 4.803000 # Og 
304 102 10 -0.325600 52.190678 45.197601 7.308000 # Og 
305 102 5 0.651200 52.190678 45.197601 6.148000 # Cg 
306 102 10 -0.325600 52.190678 45.197601 4.988000 # Og 
307 103 10 -0.325600 52.190678 45.197601 7.493000 # Og 
308 103 5 0.651200 52.190678 45.197601 6.333000 # Cg 
309 103 10 -0.325600 52.190678 45.197601 5.173000 # Og 
310 104 10 -0.325600 52.190678 45.197601 7.678000 # Og 
311 104 5 0.651200 52.190678 45.197601 6.518000 # Cg 
312 104 10 -0.325600 52.190678 45.197601 5.358000 # Og 
313 105 10 -0.325600 52.190678 45.197601 7.862000 # Og 
314 105 5 0.651200 52.190678 45.197601 6.702000 # Cg 
315 105 10 -0.325600 52.190678 45.197601 5.542000 # Og 
316 106 10 -0.325600 52.190678 45.197601 8.047000 # Og 
317 106 5 0.651200 52.190678 45.197601 6.887000 # Cg 
318 106 10 -0.325600 52.190678 45.197601 5.727000 # Og 
319 107 10 -0.325600 52.190678 45.197601 8.232000 # Og 
320 107 5 0.651200 52.190678 45.197601 7.072000 # Cg 
321 107 10 -0.325600 52.190678 45.197601 5.912000 # Og 
322 108 10 -0.325600 52.190678 45.197601 8.417000 # Og 
323 108 5 0.651200 52.190678 45.197601 7.257000 # Cg 
324 108 10 -0.325600 52.190678 45.197601 6.097000 # Og 
325 109 10 -0.325600 52.190678 45.197601 8.601000 # Og 
326 109 5 0.651200 52.190678 45.197601 7.441000 # Cg 
327 109 10 -0.325600 52.190678 45.197601 6.281000 # Og 
328 110 10 -0.325600 52.190678 45.197601 8.786000 # Og 
329 110 5 0.651200 52.190678 45.197601 7.626000 # Cg 
330 110 10 -0.325600 52.190678 45.197601 6.466000 # Og 
331 111 10 -0.325600 52.190678 45.197601 8.971000 # Og 
332 111 5 0.651200 52.190678 45.197601 7.811000 # Cg 
333 111 10 -0.325600 52.190678 45.197601 6.651000 # Og 
334 112 10 -0.325600 52.190678 45.197601 9.156000 # Og 
335 112 5 0.651200 52.190678 45.197601 7.996000 # Cg 
336 112 10 -0.325600 52.190678 45.197601 6.836000 # Og 
337 113 10 -0.325600 52.190678 45.197601 9.340000 # Og 
338 113 5 0.651200 52.190678 45.197601 8.180000 # Cg 
339 113 10 -0.325600 52.190678 45.197601 7.020000 # Og 
340 114 10 -0.325600 52.190678 45.197601 9.525000 # Og 
341 114 5 0.651200 52.190678 45.197601 8.365000 # Cg 
342 114 10 -0.325600 52.190678 45.197601 7.205000 # Og 
343 115 10 -0.325600 52.190678 45.197601 9.710000 # Og 
344 115 5 0.651200 52.190678 45.197601 8.550000 # Cg 
345 115 10 -0.325600 52.190678 45.197601 7.390000 # Og 
346 116 10 -0.325600 52.190678 45.197601 9.895000 # Og 
347 116 5 0.651200 52.190678 45.197601 8.735000 # Cg 
348 116 10 -0.325600 52.190678 45.197601 7.575000 # Og 
349 117 10 -0.325600 52.190678 45.197601 10.079000 # Og 
350 117 5 0.651200 52.190678 45.197601 8.919000 # Cg 
351 117 10 -0.325600 52.190678 45.197601 7.759000 # Og 
352 118 10 -0.325600 52.190678 45.197601 10.264000 # Og 
353 118 5 0.651200 52.190678 45.197601 9.104000 # Cg 
354 118 10 -0.325600 52.190678 45.197601 7.944000 # Og 
355 119 10 -0.325600 52.190678 45.197601 10.449000 # Og 
356 119 5 0.651200 52.190678 45.197601 9.289000 # Cg 
357 119 10 -0.325600 52.190678 45.197601 8.129000 # Og 
358 120 10 -0.325600 52.190678 45.197601 10.634000 # Og 
359 120 5 0.651200 52.190678 45.197601 9.474000 # Cg 
360 120 10 -0.325600 52.190678 45.197601 8.314000 # Og 
361 121 10 -0.325600 52.190678 45.197601 10.818000 # Og 
362 121 5 0.651200 52.190678 45.197601 9.658000 # Cg 
363 121 10 -0.325600 52.190678 45.197601 8.498000 # Og 
364 122 10 -0.325600 52.190678 45.197601 11.003000 # Og 
365 122 5 0.651200 52.190678 45.197601 9.843000 # Cg 
366 122 10 -0.325600 52.190678 45.197601 8.683000 # Og 
367 123 10 -0.325600 52.190678 45.197601 11.188000 # Og 
368 123 5 0.651200 52.190678 45.197601 10.028000 # Cg 
369 123 10 -0.325600 52.190678 45.197601 8.868000 # Og 
370 124 10 -0.325600 52.190678 45.197601 11.373000 # Og 
371 124 5 0.651200 52.190678 45.197601 10.213000 # Cg 
372 124 10 -0.325600 52.190678 45.197601 9.053000 # Og 
373 125 10 -0.325600 52.190678 45.197601 11.557000 # Og 
374 125 5 0.651200 52.190678 45.197601 10.397000 # Cg 
375 125 10 -0.325600 52.190678 45.197601 9.237000 # Og 
376 126 10 -0.325600 52.190678 45.197601 11.742000 # Og 
377 126 5 0.651200 52.190678 45.197601 10.582000 # Cg 
378 126 10 -0.325600 52.190678 45.197601 9.422000 # Og 
379 127 10 -0.325600 52.190678 45.197601 11.927000 # Og 
380 127 5 0.651200 52.190678 45.197601 10.767000 # Cg 
381 127 10 -0.325600 52.190678 45.197601 9.607000 # Og 
382 128 10 -0.325600 52.190678 45.197601 12.112000 # Og 
383 128 5 0.651200 52.190678 45.197601 10.952000 # Cg 
384 128 10 -0.325600 52.190678 45.197601 9.792000 # Og 
385 129 10 -0.325600 52.190678 45.197601 12.296000 # Og 
386 129 5 0.651200 52.190678 45.197601 11.136000 # Cg 
387 129 10 -0.325600 52.190678 45.197601 9.976000 # Og 
388 130 10 -0.325600 52.190678 45.197601 12.481000 # Og 
389 130 5 0.651200 52.190678 45.197601 11.321000 # Cg 
390 130 10 -0.325600 52.190678 45.197601 10.161000 # Og 
391 131 10 -0.325600 52.190678 45.197601 12.666000 # Og 
392 131 5 0.651200 52.190678 45.197601 11.506000 # Cg 
393 131 10 -0.325600 52.190678 45.197601 10.346000 # Og 
394 132 10 -0.325600 52.190678 45.197601 12.851000 # Og 
395 132 5 0.651200 52.190678 45.197601 11.691000 # Cg 
396 132 10 -0.325600 52.190678 45.197601 10.531000 # Og 
397 133 10 -0.325600 52.190678 45.197601 13.035000 # Og 
398 133 5 0.651200 52.190678 45.197601 11.875000 # Cg 
399 133 10 -0.325600 52.190678 45.197601 10.715000 # Og 
400 134 10 -0.325600 52.190678 45.197601 13.220000 # Og 
401 134 5 0.651200 52.190678 45.197601 12.060000 # Cg 
402 134 10 -0.325600 52.190678 45.197601 10.900000 # Og 
403 135 10 -0.325600 52.190678 45.197601 13.405000 # Og 
404 135 5 0.651200 52.190678 45.197601 12.245000 # Cg 
405 135 10 -0.325600 52.190678 45.197601 11.085000 # Og 
406 136 10 -0.325600 52.190678 45.197601 13.590000 # Og 
407 136 5 0.651200 52.190678 45.197601 12.430000 # Cg 
408 136 10 -0.325600 52.190678 45.197601 11.270000 # Og 
409 137 10 -0.325600 52.190678 45.197601 13.774000 # Og 
410 137 5 0.651200 52.190678 45.197601 12.614000 # Cg 
411 137 10 -0.325600 52.190678 45.197601 11.454000 # Og 
412 138 10 -0.325600 52.190678 45.197601 13.959000 # Og 
413 138 5 0.651200 52.190678 45.197601 12.799000 # Cg 
414 138 10 -0.325600 52.190678 45.197601 11.639000 # Og 
415 139 10 -0.325600 52.190678 45.197601 14.144000 # Og 
416 139 5 0.651200 52.190678 45.197601 12.984000 # Cg 
417 139 10 -0.325600 52.190678 45.197601 11.824000 # Og 
418 140 10 -0.325600 52.190678 45.197601 14.329000 # Og 
419 140 5 0.651200 52.190678 45.197601 13.169000 # Cg 
420 140 10 -0.325600 52.190678 45.197601 12.009000 # Og 
421 141 10 -0.325600 52.190678 45.197601 14.513000 # Og 
422 141 5 0.651200 52.190678 45.197601 13.353000 # Cg 
423 141 10 -0.325600 52.190678 45.197601 12.193000 # Og 
424 142 10 -0.325600 52.190678 45.197601 14.698000 # Og 
425 142 5 0.651200 52.190678 45.197601 13.538000 # Cg 
426 142 10 -0.325600 52.190678 45.197601 12.378000 # Og 
427 143 10 -0.325600 52.190678 45.197601 14.883000 # Og 
428 143 5 0.651200 52.190678 45.197601 13.723000 # Cg 
429 143 10 -0.325600 52.190678 45.197601 12.563000 # Og 
430 144 10 -0.325600 52.190678 45.197601 15.068000 # Og 
431 144 5 0.651200 52.190678 45.197601 13.908000 # Cg 
432 144 10 -0.325600 52.190678 45.197601 12.748000 # Og 
433 145 10 -0.325600 52.190678 45.197601 15.252000 # Og 
434 145 5 0.651200 52.190678 45.197601 14.092000 # Cg 
435 145 10 -0.325600 52.190678 45.197601 12.932000 # Og 
436 146 10 -0.325600 52.190678 45.197601 15.437000 # Og 
437 146 5 0.651200 52.190678 45.197601 14.277000 # Cg 
438 146 10 -0.325600 52.190678 45.197601 13.117000 # Og 
439 147 10 -0.325600 52.190678 45.197601 15.622000 # Og 
440 147 5 0.651200 52.190678 45.197601 14.462000 # Cg 
441 147 10 -0.325600 52.190678 45.197601 13.302000 # Og 
442 148 10 -0.325600 52.190678 45.197601 15.807000 # Og 
443 148 5 0.651200 52.190678 45.197601 14.647000 # Cg 
444 148 10 -0.325600 52.190678 45.197601 13.487000 # Og 
445 149 10 -0.325600 52.190678 45.197601 15.991000 # Og 
446 149 5 0.651200 52.190678 45.197601 14.831000 # Cg 
447 149 10 -0.325600 52.190678 45.197601 13.671000 # Og 
448 150 10 -0.325600 52.190678 22.599600 16.176001 # Og 
449 150 5 0.651200 52.190678 22.599600 15.016001 # Cg 
450 150 10 -0.325600 52.190678 22.599600 13.856001 # Og 
451 151 10 -0.325600 52.190678 22.599600 16.360001 # Og 
452 151 5 0.651200 52.190678 22.599600 15.200001 # Cg 
453 151 10 -0.325600 52.190678 22.599600 14.040000 # Og 
454 152 10 -0.325600 52.190678 22.599600 16.545000 # Og 
455 152 5 0.651200 52.190678 22.599600 15.385000 # Cg 
456 152 10 -0.325600 52.190678 22.599600 14.225000 # Og 
457 153 10 -0.325600 52.190678 22.599600 16.730000 # Og 
458 153 5 0.651200 52.190678 22.599600 15.570001 # Cg 
459 153 10 -0.325600 52.190678 22.599600 14.410001 # Og 
460 154 10 -0.325600 52.190678 22.599600 16.915001 # Og 
461 154 5 0.651200 52.190678 22.599600 15.755000 # Cg 
462 154 10 -0.325600 52.190678 22.599600 14.595000 # Og 
463 155 10 -0.325600 52.190678 22.599600 17.098999 # Og 
464 155 5 0.651200 52.190678 22.599600 15.939000 # Cg 
465 155 10 -0.325600 52.190678 22.599600 14.779000 # Og 
466 156 10 -0.325600 52.190678 22.599600 17.284000 # Og 
467 156 5 0.651200 52.190678 22.599600 16.124001 # Cg 
468 156 10 -0.325600 52.190678 22.599600 14.964001 # Og 
469 157 10 -0.325600 52.190678 22.599600 17.469002 # Og 
470 157 5 0.651200 52.190678 22.599600 16.309000 # Cg 
471 157 10 -0.325600 52.190678 22.599600 15.149000 # Og 
472 158 10 -0.325600 52.190678 22.599600 17.653999 # Og 
473 158 5 0.651200 52.190678 22.599600 16.493999 # Cg 
474 158 10 -0.325600 52.190678 22.599600 15.334001 # Og 
475 159 10 -0.325600 52.190678 22.599600 17.838001 # Og 
476 159 5 0.651200 52.190678 22.599600 16.678001 # Cg 
477 159 10 -0.325600 52.190678 22.599600 15.518001 # Og 
478 160 10 -0.325600 52.190678 22.599600 18.023001 # Og 
479 160 5 0.651200 52.190678 22.599600 16.863001 # Cg 
480 160 10 -0.325600 52.190678 22.599600 15.703000 # Og 
481 161 10 -0.325600 52.190678 22.599600 18.208000 # Og 
482 161 5 0.651200 52.190678 22.599600 17.048000 # Cg 
483 161 10 -0.325600 52.190678 22.599600 15.888000 # Og 
484 162 10 -0.325600 52.190678 22.599600 18.393002 # Og 
485 162 5 0.651200 52.190678 22.599600 17.233002 # Cg 
486 162 10 -0.325600 52.190678 22.599600 16.073000 # Og 
487 163 10 -0.325600 52.190678 22.599600 18.577000 # Og 
488 163 5 0.651200 52.190678 22.599600 17.417000 # Cg 
489 163 10 -0.325600 52.190678 22.599600 16.257000 # Og 
490 164 10 -0.325600 52.190678 22.599600 18.762001 # Og 
491 164 5 0.651200 52.190678 22.599600 17.602001 # Cg 
492 164 10 -0.325600 52.190678 22.599600 16.442001 # Og 
493 165 10 -0.325600 52.190678 22.599600 18.947001 # Og 
494 165 5 0.651200 52.190678 22.599600 17.787001 # Cg 
495 165 10 -0.325600 52.190678 22.599600 16.627001 # Og 
496 166 10 -0.325600 52.190678 22.599600 19.132000 # Og 
497 166 5 0.651200 52.190678 22.599600 17.972000 # Cg 
498 166 10 -0.325600 52.190678 22.599600 16.812000 # Og 
499 167 10 -0.325600 52.190678 22.599600 19.316000 # Og 
500 167 5 0.651200 52.190678 22.599600 18.156000 # Cg 
501 167 10 -0.325600 52.190678 22.599600 16.996000 # Og 
502 168 10 -0.325600 52.190678 22.599600 19.500999 # Og 
503 168 5 0.651200 52.190678 22.599600 18.341000 # Cg 
504 168 10 -0.325600 52.190678 22.599600 17.181000 # Og 
505 169 10 -0.325600 52.190678 22.599600 19.686001 # Og 
506 169 5 0.651200 52.190678 22.599600 18.526001 # Cg 
507 169 10 -0.325600 52.190678 22.599600 17.366001 # Og 
508 170 10 -0.325600 52.190678 22.599600 19.871000 # Og 
509 170 5 0.651200 52.190678 22.599600 18.711000 # Cg 
510 170 10 -0.325600 52.190678 22.599600 17.551001 # Og 
511 171 10 -0.325600 52.190678 22.599600 20.055000 # Og 
512 171 5 0.651200 52.190678 22.599600 18.895000 # Cg 
513 171 10 -0.325600 52.190678 22.599600 17.735001 # Og 
514 172 10 -0.325600 52.190678 22.599600 20.240000 # Og 
515 172 5 0.651200 52.190678 22.599600 19.080002 # Cg 
516 172 10 -0.325600 52.190678 22.599600 17.920000 # Og 
517 173 10 -0.325600 52.190678 22.599600 20.424999 # Og 
518 173 5 0.651200 52.190678 22.599600 19.264999 # Cg 
519 173 10 -0.325600 52.190678 22.599600 18.105000 # Og 
520 174 10 -0.325600 52.190678 22.599600 20.610001 # Og 
521 174 5 0.651200 52.190678 22.599600 19.450001 # Cg 
522 174 10 -0.325600 52.190678 22.599600 18.290001 # Og 
523 175 10 -0.325600 52.190678 22.599600 20.794001 # Og 
524 175 5 0.651200 52.190678 22.599600 19.634001 # Cg 
525 175 10 -0.325600 52.190678 22.599600 18.473999 # Og 
526 176 10 -0.325600 52.190678 22.599600 20.979000 # Og 
527 176 5 0.651200 52.190678 22.599600 19.819000 # Cg 
528 176 10 -0.325600 52.190678 22.599600 18.659000 # Og 
529 177 10 -0.325600 52.190678 22.599600 21.164001 # Og 
530 177 5 0.651200 52.190678 22.599600 20.004002 # Cg 
531 177 10 -0.325600 52.190678 22.599600 18.844002 # Og 