LAMMPS data file. CGCMM style. atom_style full generated by VMD/TopoTools v1.5 on Sun Mar 05 19:09:44 PST 2017
 1305 atoms
 0 bonds
 0 angles
 0 dihedrals
 0 impropers
 10 atom types
 0 bond types
 0 angle types
 0 dihedral types
 0 improper types
 0.439550 26.456750  xlo xhi
 0.332838 45.395937  ylo yhi
 -0.387750 26.927729  zlo zhi

# Pair Coeffs
#
# 1  CH4
# 2  Ca
# 3  Cb
# 4  Cc
# 5  Cd
# 6  H
# 7  Ni
# 8  Oa
# 9  Ob
# 10  Oc

 Masses

 1 16.040001 # CH4
 2 12.011000 # Ca
 3 12.011000 # Cb
 4 12.011000 # Cc
 5 12.011000 # Cd
 6 1.008000 # H
 7 58.693001 # Ni
 8 15.999000 # Oa
 9 15.999000 # Ob
 10 15.999000 # Oc

 Atoms

1 1 1 0.000000 26.017300 45.062775 18.210001 # CH4 
2 1 1 0.000000 26.017300 45.062775 0.000000 # CH4 
3 1 1 0.000000 26.017300 45.062775 9.105000 # CH4 
4 1 1 0.000000 26.017300 22.531775 18.210001 # CH4 
5 1 1 0.000000 26.017300 22.531775 0.000000 # CH4 
6 1 1 0.000000 26.017300 22.531775 9.105000 # CH4 
7 1 1 0.000000 13.008301 45.062775 18.210001 # CH4 
8 1 1 0.000000 13.008301 45.062775 0.000000 # CH4 
9 1 1 0.000000 13.008301 45.062775 9.105000 # CH4 
10 1 9 0.000000 23.941000 21.823999 20.945980 # Ob LIG
11 2 9 0.000000 10.932000 44.355999 20.945980 # Ob LIG
12 3 9 0.000000 23.941000 6.803000 23.221979 # Ob LIG
13 4 9 0.000000 10.932000 29.334000 23.221979 # Ob LIG
14 5 10 0.000000 23.514999 7.995000 20.491980 # Oc LIG
15 6 10 0.000000 10.506000 30.527000 20.491980 # Oc LIG
16 1 8 0.000000 22.554001 7.442000 18.022980 # Oa LIG
17 2 8 0.000000 9.546000 29.973000 18.022980 # Oa LIG
18 1 8 0.000000 22.554001 22.462999 22.575979 # Oa LIG
19 2 8 0.000000 9.546000 44.993999 22.575979 # Oa LIG
20 3 8 0.000000 21.304001 8.301000 22.575979 # Oa LIG
21 4 8 0.000000 8.295000 30.833000 22.575979 # Oa LIG
22 3 9 0.000000 21.164000 9.821000 20.945980 # Ob LIG
23 4 9 0.000000 8.155000 32.353001 20.945980 # Ob LIG
24 7 10 0.000000 21.184000 20.701000 20.491980 # Oc LIG
25 8 10 0.000000 8.176000 43.233002 20.491980 # Oc LIG
26 3 8 0.000000 21.184999 21.809999 18.022980 # Oa LIG
27 2 8 0.000000 8.176000 44.341000 18.022980 # Oa LIG
28 1 9 0.000000 19.938000 20.927999 23.221979 # Ob LIG
29 2 9 0.000000 6.930000 43.459999 23.221979 # Ob LIG
30 9 9 0.000000 19.087999 16.624001 22.302979 # Ob LIG
31 10 9 0.000000 6.079000 39.155998 22.302979 # Ob LIG
32 11 10 0.000000 18.681999 13.676000 22.756979 # Oc LIG
33 12 10 0.000000 5.673000 36.207001 22.756979 # Oc LIG
34 9 8 0.000000 17.841000 15.743000 20.672979 # Oa LIG
35 10 8 0.000000 4.833000 38.275002 20.672979 # Oa LIG
36 13 10 0.000000 17.841999 16.851000 18.204979 # Oc LIG
37 14 10 0.000000 4.833000 39.382999 18.204979 # Oc LIG
38 15 10 0.000000 10.506000 0.485000 18.214979 # Oc LIG
39 4 10 0.000000 23.514999 23.017000 18.214979 # Oc LIG
40 16 10 0.000000 10.506000 15.506000 22.767979 # Oc LIG
41 17 10 0.000000 23.514999 38.036999 22.767979 # Oc LIG
42 18 9 0.000000 10.932000 14.313000 18.668980 # Ob LIG
43 19 9 0.000000 23.941000 36.845001 18.668980 # Ob LIG
44 20 9 0.000000 15.085000 0.708000 20.026979 # Ob LIG
45 21 9 0.000000 2.076000 23.239000 20.026979 # Ob LIG
46 22 9 0.000000 15.085000 15.729000 17.750980 # Ob LIG
47 23 9 0.000000 2.077000 38.259998 17.750980 # Ob LIG
48 24 10 0.000000 15.511000 14.536000 20.480980 # Oc LIG
49 25 10 0.000000 2.503000 37.068001 20.480980 # Oc LIG
50 5 8 0.000000 16.471001 15.090000 22.948978 # Oa LIG
51 6 8 0.000000 3.463000 37.620998 22.948978 # Oa LIG
52 20 8 0.000000 16.471001 0.069000 18.396980 # Oa LIG
53 21 8 0.000000 3.463000 22.601000 18.396980 # Oa LIG
54 22 8 0.000000 17.722000 14.230000 18.396980 # Oa LIG
55 23 8 0.000000 4.713000 36.762001 18.396980 # Oa LIG
56 22 9 0.000000 17.862000 12.710000 20.026979 # Ob LIG
57 23 9 0.000000 4.853000 35.242001 20.026979 # Ob LIG
58 26 10 0.000000 17.841000 1.831000 20.480980 # Oc LIG
59 27 10 0.000000 4.833000 24.362000 20.480980 # Oc LIG
60 20 8 0.000000 17.841000 0.722000 22.948978 # Oa LIG
61 28 8 0.000000 4.833000 23.254000 22.948978 # Oa LIG
62 20 9 0.000000 19.087000 1.603000 17.750980 # Ob LIG
63 21 9 0.000000 6.079000 24.135000 17.750980 # Ob LIG
64 28 9 0.000000 19.938000 5.907000 18.668980 # Ob LIG
65 28 9 0.000000 6.930000 28.438999 18.668980 # Ob LIG
66 28 9 0.000000 2.076000 8.218000 22.302979 # Ob LIG
67 28 9 0.000000 15.085000 30.750000 22.302979 # Ob LIG
68 28 10 0.000000 2.503000 7.026000 18.204979 # Oc LIG
69 28 10 0.000000 15.511000 29.556999 18.204979 # Oc LIG
70 28 10 0.000000 2.503000 22.047001 22.756979 # Oc LIG
71 28 10 0.000000 15.511000 44.577999 22.756979 # Oc LIG
72 28 10 0.000000 20.344000 8.856000 18.215981 # Oc LIG
73 28 10 0.000000 7.336000 31.388000 18.215981 # Oc LIG
74 28 8 0.000000 21.184999 6.789000 20.299980 # Oa LIG
75 28 8 0.000000 8.176000 29.320000 20.299980 # Oa LIG
76 28 10 0.000000 21.184000 5.680000 22.767979 # Oc LIG
77 28 10 0.000000 8.176000 28.212000 22.767979 # Oc LIG
78 28 8 0.000000 3.463000 7.579000 20.672979 # Oa LIG
79 28 8 0.000000 16.471001 30.111000 20.672979 # Oa LIG
80 28 8 0.000000 4.713000 6.720000 22.948978 # Oa LIG
81 28 8 0.000000 17.722000 29.250999 22.948978 # Oa LIG
82 28 8 0.000000 4.713000 21.740999 20.672979 # Oa LIG
83 28 8 0.000000 17.722000 44.271999 20.672979 # Oa LIG
84 28 9 0.000000 4.853000 5.200000 17.750980 # Ob LIG
85 28 9 0.000000 17.862000 27.731001 17.750980 # Ob LIG
86 28 9 0.000000 4.853000 20.221001 22.302979 # Ob LIG
87 28 9 0.000000 17.862000 42.751999 22.302979 # Ob LIG
88 28 10 0.000000 4.833000 9.341000 22.756979 # Oc LIG
89 28 10 0.000000 17.841000 31.872999 22.756979 # Oc LIG
90 28 8 0.000000 4.833000 8.232000 18.396980 # Oa LIG
91 28 8 0.000000 17.841000 30.764000 18.396980 # Oa LIG
92 28 10 0.000000 5.673000 6.165000 20.480980 # Oc LIG
93 28 10 0.000000 18.681999 28.697001 20.480980 # Oc LIG
94 28 10 0.000000 5.673000 21.186001 18.204979 # Oc LIG
95 28 10 0.000000 18.681000 43.717999 18.204979 # Oc LIG
96 28 9 0.000000 6.079000 9.114000 20.026979 # Ob LIG
97 28 9 0.000000 19.087000 31.645000 20.026979 # Ob LIG
98 28 9 0.000000 6.930000 13.418000 20.945980 # Ob LIG
99 28 9 0.000000 19.938000 35.949001 20.945980 # Ob LIG
100 28 10 0.000000 7.336000 1.345000 22.767979 # Oc LIG
101 28 10 0.000000 20.344000 23.877001 22.767979 # Oc LIG
102 28 10 0.000000 7.336000 16.365999 20.491980 # Oc LIG
103 28 10 0.000000 20.344000 38.897999 20.491980 # Oc LIG
104 28 8 0.000000 8.176000 14.299000 22.575979 # Oa LIG
105 28 8 0.000000 21.184999 36.831001 22.575979 # Oa LIG
106 28 10 0.000000 8.176000 13.190000 18.214979 # Oc LIG
107 28 10 0.000000 21.184000 35.722000 18.214979 # Oc LIG
108 28 9 0.000000 8.155000 2.311000 18.668980 # Ob LIG
109 28 9 0.000000 21.164000 24.841999 18.668980 # Ob LIG
110 28 9 0.000000 8.155000 17.332001 23.221979 # Ob LIG
111 28 9 0.000000 21.164000 39.862999 23.221979 # Ob LIG
112 28 8 0.000000 8.296000 0.791000 20.299980 # Oa LIG
113 28 8 0.000000 21.304001 23.322001 20.299980 # Oa LIG
114 28 8 0.000000 8.295000 15.812000 18.022980 # Oa LIG
115 28 8 0.000000 21.304001 38.342999 18.022980 # Oa LIG
116 18 8 0.000000 9.546000 14.952000 20.299980 # Oa LIG
117 19 8 0.000000 22.554001 37.484001 20.299980 # Oa LIG
118 5 5 0.000000 25.868000 7.878000 20.672979 # Cd LIG
119 6 5 0.000000 12.860000 30.409000 20.672979 # Cd LIG
120 5 3 0.000000 24.879999 7.373000 18.527981 # Cb LIG
121 28 3 0.000000 11.871000 29.905001 18.527981 # Cb LIG
122 1 3 0.000000 24.879999 22.393999 23.080978 # Cb LIG
123 28 3 0.000000 11.871000 44.925999 23.080978 # Cb LIG
124 5 4 0.000000 24.708000 7.749000 19.900980 # Cc LIG
125 6 4 0.000000 11.699000 30.280001 19.900980 # Cc LIG
126 1 2 0.000000 23.745001 22.209999 22.137980 # Ca LIG
127 2 2 0.000000 10.736000 44.741001 22.137980 # Ca LIG
128 1 2 0.000000 23.745001 7.188000 17.585979 # Ca LIG
129 2 2 0.000000 10.736000 29.719999 17.585979 # Ca LIG
130 3 2 0.000000 20.927999 9.459000 22.137980 # Ca LIG
131 4 2 0.000000 7.919000 31.990999 22.137980 # Ca LIG
132 7 4 0.000000 20.374001 19.791000 19.900980 # Cc LIG
133 8 4 0.000000 7.365000 42.323002 19.900980 # Cc LIG
134 3 2 0.000000 20.370001 20.905001 17.585979 # Ca LIG
135 2 2 0.000000 7.361000 43.437000 17.585979 # Ca LIG
136 11 3 0.000000 20.201000 10.350000 23.080978 # Cb LIG
137 12 3 0.000000 7.192000 32.881001 23.080978 # Cb LIG
138 13 3 0.000000 19.962999 19.830000 18.527981 # Cb LIG
139 14 3 0.000000 6.954000 42.362000 18.527981 # Cb LIG
140 7 5 0.000000 19.905001 18.722000 20.672979 # Cd LIG
141 8 5 0.000000 6.897000 41.252998 20.672979 # Cd LIG
142 11 5 0.000000 19.757000 11.578000 22.575979 # Cd LIG
143 12 5 0.000000 6.749000 34.110001 22.575979 # Cd LIG
144 13 5 0.000000 19.120001 18.830999 18.022980 # Cd LIG
145 14 5 0.000000 6.112000 41.362999 18.022980 # Cd LIG
146 7 3 0.000000 19.063000 17.723000 20.167980 # Cb LIG
147 8 3 0.000000 6.055000 40.254002 20.167980 # Cb LIG
148 11 4 0.000000 19.065001 12.519000 23.347980 # Cc LIG
149 12 4 0.000000 6.056000 35.050999 23.347980 # Cc LIG
150 9 2 0.000000 18.656000 16.646999 21.110979 # Ca LIG
151 10 2 0.000000 5.647000 39.179001 21.110979 # Ca LIG
152 13 4 0.000000 18.652000 17.761000 18.795979 # Cc LIG
153 14 4 0.000000 5.643000 40.292999 18.795979 # Cc LIG
154 28 5 0.000000 0.149000 7.143000 18.022980 # Cd LIG
155 28 5 0.000000 13.157000 29.674999 18.022980 # Cd LIG
156 28 5 0.000000 0.149000 22.164000 22.575979 # Cd LIG
157 28 5 0.000000 13.157000 44.695999 22.575979 # Cd LIG
158 28 3 0.000000 1.137000 7.648000 20.167980 # Cb LIG
159 6 3 0.000000 14.146000 30.179001 20.167980 # Cb LIG
160 28 4 0.000000 1.309000 22.292999 23.347980 # Cc LIG
161 28 4 0.000000 14.318000 44.825001 23.347980 # Cc LIG
162 28 4 0.000000 1.309000 7.272000 18.795979 # Cc LIG
163 28 4 0.000000 14.318000 29.804001 18.795979 # Cc LIG
164 18 2 0.000000 10.736000 14.699000 19.861980 # Ca LIG
165 19 2 0.000000 23.745001 37.230000 19.861980 # Ca LIG
166 16 4 0.000000 11.699000 15.259000 22.176979 # Cc LIG
167 17 4 0.000000 24.708000 37.791000 22.176979 # Cc LIG
168 15 4 0.000000 11.699000 0.238000 17.624979 # Cc LIG
169 4 4 0.000000 24.708000 22.770000 17.624979 # Cc LIG
170 24 3 0.000000 11.871000 14.884000 20.804979 # Cb LIG
171 17 3 0.000000 24.879999 37.415001 20.804979 # Cb LIG
172 15 5 0.000000 12.860000 0.367000 18.396980 # Cd LIG
173 4 5 0.000000 25.868999 22.899000 18.396980 # Cd LIG
174 16 5 0.000000 12.860000 15.388000 22.949980 # Cd LIG
175 17 5 0.000000 25.868000 37.919998 22.949980 # Cd LIG
176 24 5 0.000000 13.157000 14.654000 20.299980 # Cd LIG
177 25 5 0.000000 0.149000 37.185001 20.299980 # Cd LIG
178 16 3 0.000000 14.146000 15.158000 22.443979 # Cb LIG
179 25 3 0.000000 1.137000 37.689999 22.443979 # Cb LIG
180 15 3 0.000000 14.146000 0.137000 17.891979 # Cb LIG
181 21 3 0.000000 1.137000 22.669001 17.891979 # Cb LIG
182 24 4 0.000000 14.318000 14.783000 21.071980 # Cc LIG
183 25 4 0.000000 1.309000 37.313999 21.071980 # Cc LIG
184 20 2 0.000000 15.281000 0.322000 18.834980 # Ca LIG
185 21 2 0.000000 2.272000 22.854000 18.834980 # Ca LIG
186 5 2 0.000000 15.281000 15.343000 23.386980 # Ca LIG
187 6 2 0.000000 2.272000 37.875000 23.386980 # Ca LIG
188 22 2 0.000000 18.098000 13.072000 18.833981 # Ca LIG
189 23 2 0.000000 5.089000 35.604000 18.833981 # Ca LIG
190 26 4 0.000000 18.652000 2.740000 21.071980 # Cc LIG
191 27 4 0.000000 5.643000 25.271999 21.071980 # Cc LIG
192 20 2 0.000000 18.656000 1.626000 23.386980 # Ca LIG
193 28 2 0.000000 5.647000 24.158001 23.386980 # Ca LIG
194 28 3 0.000000 18.825001 12.182000 17.891979 # Cb LIG
195 28 3 0.000000 5.816000 34.714001 17.891979 # Cb LIG
196 28 3 0.000000 19.063000 2.701000 22.443979 # Cb LIG
197 28 3 0.000000 6.055000 25.233000 22.443979 # Cb LIG
198 26 5 0.000000 19.120001 3.810000 20.299980 # Cd LIG
199 27 5 0.000000 6.111000 26.341999 20.299980 # Cd LIG
200 28 5 0.000000 19.268999 10.953000 18.396980 # Cd LIG
201 28 5 0.000000 6.260000 33.485001 18.396980 # Cd LIG
202 28 5 0.000000 19.906000 3.700000 22.948978 # Cd LIG
203 28 5 0.000000 6.897000 26.232000 22.948978 # Cd LIG
204 28 2 0.000000 2.272000 7.833000 21.110979 # Ca LIG
205 28 2 0.000000 15.281000 30.364000 21.110979 # Ca LIG
206 26 3 0.000000 19.962000 4.809000 20.804979 # Cb LIG
207 27 3 0.000000 6.954000 27.341000 20.804979 # Cb LIG
208 28 4 0.000000 19.961000 10.013000 17.624979 # Cc LIG
209 28 4 0.000000 6.953000 32.543999 17.624979 # Cc LIG
210 28 2 0.000000 20.370001 5.884000 19.861980 # Ca LIG
211 28 2 0.000000 7.361000 28.416000 19.861980 # Ca LIG
212 28 4 0.000000 20.374001 4.770000 22.176979 # Cc LIG
213 28 4 0.000000 7.366000 27.302000 22.176979 # Cc LIG
214 28 2 0.000000 5.089000 5.562000 23.386980 # Ca LIG
215 28 2 0.000000 18.098000 28.093000 23.386980 # Ca LIG
216 28 2 0.000000 5.089000 20.583000 21.110979 # Ca LIG
217 28 2 0.000000 18.098000 43.115002 21.110979 # Ca LIG
218 28 4 0.000000 5.643000 10.251000 23.347980 # Cc LIG
219 28 4 0.000000 18.652000 32.783001 23.347980 # Cc LIG
220 28 2 0.000000 5.647000 9.137000 18.834980 # Ca LIG
221 28 2 0.000000 18.656000 31.667999 18.834980 # Ca LIG
222 28 3 0.000000 5.816000 4.671000 22.443979 # Cb LIG
223 28 3 0.000000 18.825001 27.202999 22.443979 # Cb LIG
224 28 3 0.000000 5.817000 19.693001 20.167980 # Cb LIG
225 28 3 0.000000 18.825001 42.223999 20.167980 # Cb LIG
226 28 4 0.000000 6.056000 5.008000 21.071980 # Cc LIG
227 28 4 0.000000 19.065001 27.540001 21.071980 # Cc LIG
228 28 4 0.000000 6.056000 20.028999 18.795979 # Cc LIG
229 28 4 0.000000 19.063999 42.561001 18.795979 # Cc LIG
230 28 3 0.000000 6.055000 10.212000 17.891979 # Cb LIG
231 28 3 0.000000 19.063000 32.743000 17.891979 # Cb LIG
232 28 5 0.000000 6.111000 11.321000 22.575979 # Cd LIG
233 28 5 0.000000 19.120001 33.852001 22.575979 # Cd LIG
234 28 5 0.000000 6.260000 3.443000 22.948978 # Cd LIG
235 28 5 0.000000 19.268999 25.974001 22.948978 # Cd LIG
236 28 5 0.000000 6.261000 18.464001 20.672979 # Cd LIG
237 28 5 0.000000 19.268999 40.994999 20.672979 # Cd LIG
238 28 5 0.000000 6.748000 4.068000 20.299980 # Cd LIG
239 28 5 0.000000 19.757000 26.599001 20.299980 # Cd LIG
240 28 5 0.000000 6.748000 19.089001 18.022980 # Cd LIG
241 28 5 0.000000 19.757000 41.619999 18.022980 # Cd LIG
242 28 5 0.000000 6.897000 11.211000 18.396980 # Cd LIG
243 28 5 0.000000 19.906000 33.742001 18.396980 # Cd LIG
244 28 3 0.000000 6.954000 12.320000 23.080978 # Cb LIG
245 28 3 0.000000 19.962000 34.851002 23.080978 # Cb LIG
246 28 4 0.000000 6.953000 2.502000 22.176979 # Cc LIG
247 28 4 0.000000 19.961000 25.034000 22.176979 # Cc LIG
248 28 4 0.000000 6.953000 17.523001 19.900980 # Cc LIG
249 28 4 0.000000 19.961000 40.055000 19.900980 # Cc LIG
250 28 3 0.000000 7.192000 2.839000 20.804979 # Cb LIG
251 28 3 0.000000 20.201000 25.371000 20.804979 # Cb LIG
252 28 3 0.000000 7.192000 17.860001 18.527981 # Cb LIG
253 28 3 0.000000 20.201000 40.390999 18.527981 # Cb LIG
254 28 2 0.000000 7.361000 13.395000 22.137980 # Ca LIG
255 28 2 0.000000 20.370001 35.925999 22.137980 # Ca LIG
256 28 4 0.000000 7.366000 12.281000 17.624979 # Cc LIG
257 28 4 0.000000 20.374001 34.812000 17.624979 # Cc LIG
258 28 2 0.000000 7.919000 1.949000 19.861980 # Ca LIG
259 28 2 0.000000 20.927999 24.480000 19.861980 # Ca LIG
260 28 2 0.000000 7.919000 16.969999 17.585979 # Ca LIG
261 28 2 0.000000 20.927999 39.500999 17.585979 # Ca LIG
262 5 6 0.000000 25.764999 8.173000 21.715981 # H LIG
263 6 6 0.000000 12.756000 30.704000 21.715981 # H LIG
264 7 6 0.000000 20.212999 18.664000 21.715981 # H LIG
265 8 6 0.000000 7.204000 41.195999 21.715981 # H LIG
266 11 6 0.000000 19.961000 11.816000 21.532980 # H LIG
267 12 6 0.000000 6.952000 34.347000 21.532980 # H LIG
268 29 6 0.000000 18.813000 18.889000 23.808979 # H LIG
269 30 6 0.000000 5.805000 41.419998 23.808979 # H LIG
270 31 6 0.000000 0.252000 6.849000 23.808979 # H LIG
271 32 6 0.000000 13.261000 29.379999 23.808979 # H LIG
272 28 6 0.000000 0.252000 21.870001 21.532980 # H LIG
273 28 6 0.000000 13.261000 44.401001 21.532980 # H LIG
274 15 6 0.000000 12.756000 0.662000 19.439980 # H LIG
275 4 6 0.000000 25.764999 23.194000 19.439980 # H LIG
276 33 6 0.000000 12.756000 15.683000 17.163979 # H LIG
277 34 6 0.000000 25.764999 38.215000 17.163979 # H LIG
278 24 6 0.000000 13.261000 14.359000 19.255980 # H LIG
279 25 6 0.000000 0.252000 36.890999 19.255980 # H LIG
280 26 6 0.000000 18.813000 3.868000 19.256979 # H LIG
281 27 6 0.000000 5.804000 26.399000 19.256979 # H LIG
282 28 6 0.000000 19.065001 10.716000 19.439980 # H LIG
283 28 6 0.000000 6.057000 33.248001 19.439980 # H LIG
284 35 6 0.000000 20.212999 3.643000 17.163979 # H LIG
285 36 6 0.000000 7.204000 26.174000 17.163979 # H LIG
286 28 6 0.000000 5.804000 11.378000 21.532980 # H LIG
287 28 6 0.000000 18.813000 33.910000 21.532980 # H LIG
288 37 6 0.000000 6.057000 3.205000 17.163979 # H LIG
289 38 6 0.000000 19.065001 25.737000 17.163979 # H LIG
290 28 6 0.000000 6.057000 18.226999 21.715981 # H LIG
291 28 6 0.000000 19.066000 40.757999 21.715981 # H LIG
292 28 6 0.000000 6.952000 4.305000 19.256979 # H LIG
293 28 6 0.000000 19.959999 26.837000 19.256979 # H LIG
294 39 6 0.000000 6.951000 19.326000 23.808979 # H LIG
295 40 6 0.000000 19.959999 41.856998 23.808979 # H LIG
296 28 6 0.000000 7.204000 11.153000 19.439980 # H LIG
297 28 6 0.000000 20.212999 33.685001 19.439980 # H LIG
298 28 7 0.000000 22.488001 21.886000 19.548981 # Ni LIG
299 2 7 0.000000 9.479000 44.417999 19.548981 # Ni LIG
300 1 7 0.000000 20.719000 22.156000 21.825979 # Ni LIG
301 2 7 0.000000 7.710000 44.687000 21.825979 # Ni LIG
302 41 7 0.000000 8.828000 1.021000 17.272980 # Ni LIG
303 3 7 0.000000 21.837000 23.552999 17.272980 # Ni LIG
304 20 7 0.000000 16.538000 0.645000 21.423981 # Ni LIG
305 28 7 0.000000 3.529000 23.177000 21.423981 # Ni LIG
306 20 7 0.000000 18.306999 0.376000 19.147980 # Ni LIG
307 21 7 0.000000 5.299000 22.908001 19.147980 # Ni LIG
308 28 7 0.000000 4.181000 21.510000 23.699980 # Ni LIG
309 42 7 0.000000 17.188999 44.042000 23.699980 # Ni LIG
310 3 7 0.000000 22.488001 6.865000 21.824980 # Ni LIG
311 4 7 0.000000 9.479000 29.396999 21.824980 # Ni LIG
312 28 7 0.000000 21.837000 8.532000 19.548981 # Ni LIG
313 28 7 0.000000 8.828000 31.063000 19.548981 # Ni LIG
314 1 7 0.000000 20.718000 7.135000 17.272980 # Ni LIG
315 2 7 0.000000 7.710000 29.666000 17.272980 # Ni LIG
316 28 7 0.000000 3.529000 8.156000 23.699980 # Ni LIG
317 28 7 0.000000 16.538000 30.688000 23.699980 # Ni LIG
318 28 7 0.000000 4.180000 6.489000 19.147980 # Ni LIG
319 28 7 0.000000 17.188999 29.021000 19.147980 # Ni LIG
320 28 7 0.000000 5.299000 7.886000 21.423981 # Ni LIG
321 28 7 0.000000 18.306999 30.417999 21.423981 # Ni LIG
322 18 7 0.000000 7.710000 14.645000 19.548981 # Ni LIG
323 19 7 0.000000 20.719000 37.176998 19.548981 # Ni LIG
324 28 7 0.000000 8.828000 16.042000 21.824980 # Ni LIG
325 28 7 0.000000 21.837000 38.574001 21.824980 # Ni LIG
326 28 7 0.000000 9.479000 14.375000 17.272980 # Ni LIG
327 28 7 0.000000 22.488001 36.907001 17.272980 # Ni LIG
328 5 7 0.000000 18.306999 15.397000 23.699980 # Ni LIG
329 6 7 0.000000 5.299000 37.929001 23.699980 # Ni LIG
330 22 7 0.000000 16.538000 15.666000 19.146980 # Ni LIG
331 23 7 0.000000 3.529000 38.198002 19.146980 # Ni LIG
332 9 7 0.000000 17.188999 14.000000 21.423981 # Ni LIG
333 10 7 0.000000 4.180000 36.530998 21.423981 # Ni LIG
334 1 9 0.000000 23.941000 21.823999 0.459500 # Ob LIG
335 2 9 0.000000 10.932000 44.355999 0.459500 # Ob LIG
336 3 9 0.000000 23.941000 6.803000 2.735500 # Ob LIG
337 4 9 0.000000 10.932000 29.334000 2.735500 # Ob LIG
338 5 10 0.000000 23.514999 7.995000 0.005500 # Oc LIG
339 6 10 0.000000 10.506000 30.527000 0.005500 # Oc LIG
340 1 8 0.000000 22.554001 7.442000 24.851978 # Oa LIG
341 2 8 0.000000 9.546000 29.973000 24.851978 # Oa LIG
342 1 8 0.000000 22.554001 22.462999 2.089500 # Oa LIG
343 2 8 0.000000 9.546000 44.993999 2.089500 # Oa LIG
344 3 8 0.000000 21.304001 8.301000 2.089500 # Oa LIG
345 4 8 0.000000 8.295000 30.833000 2.089500 # Oa LIG
346 3 9 0.000000 21.164000 9.821000 0.459500 # Ob LIG
347 4 9 0.000000 8.155000 32.353001 0.459500 # Ob LIG
348 7 10 0.000000 21.184000 20.701000 0.005500 # Oc LIG
349 8 10 0.000000 8.176000 43.233002 0.005500 # Oc LIG
350 3 8 0.000000 21.184999 21.809999 24.851978 # Oa LIG
351 2 8 0.000000 8.176000 44.341000 24.851978 # Oa LIG
352 1 9 0.000000 19.938000 20.927999 2.735500 # Ob LIG
353 2 9 0.000000 6.930000 43.459999 2.735500 # Ob LIG
354 9 9 0.000000 19.087999 16.624001 1.816500 # Ob LIG
355 10 9 0.000000 6.079000 39.155998 1.816500 # Ob LIG
356 11 10 0.000000 18.681999 13.676000 2.270500 # Oc LIG
357 12 10 0.000000 5.673000 36.207001 2.270500 # Oc LIG
358 9 8 0.000000 17.841000 15.743000 0.186500 # Oa LIG
359 10 8 0.000000 4.833000 38.275002 0.186500 # Oa LIG
360 13 10 0.000000 17.841999 16.851000 25.033979 # Oc LIG
361 14 10 0.000000 4.833000 39.382999 25.033979 # Oc LIG
362 15 10 0.000000 10.506000 0.485000 25.043980 # Oc LIG
363 4 10 0.000000 23.514999 23.017000 25.043980 # Oc LIG
364 16 10 0.000000 10.506000 15.506000 2.281500 # Oc LIG
365 17 10 0.000000 23.514999 38.036999 2.281500 # Oc LIG
366 18 9 0.000000 10.932000 14.313000 25.497980 # Ob LIG
367 19 9 0.000000 23.941000 36.845001 25.497980 # Ob LIG
368 20 9 0.000000 15.085000 0.708000 26.855980 # Ob LIG
369 21 9 0.000000 2.076000 23.239000 26.855980 # Ob LIG
370 22 9 0.000000 15.085000 15.729000 24.579979 # Ob LIG
371 23 9 0.000000 2.077000 38.259998 24.579979 # Ob LIG
372 24 10 0.000000 15.511000 14.536000 27.309978 # Oc LIG
373 25 10 0.000000 2.503000 37.068001 27.309978 # Oc LIG
374 5 8 0.000000 16.471001 15.090000 2.462500 # Oa LIG
375 6 8 0.000000 3.463000 37.620998 2.462500 # Oa LIG
376 20 8 0.000000 16.471001 0.069000 25.225979 # Oa LIG
377 21 8 0.000000 3.463000 22.601000 25.225979 # Oa LIG
378 22 8 0.000000 17.722000 14.230000 25.225979 # Oa LIG
379 23 8 0.000000 4.713000 36.762001 25.225979 # Oa LIG
380 22 9 0.000000 17.862000 12.710000 26.855980 # Ob LIG
381 23 9 0.000000 4.853000 35.242001 26.855980 # Ob LIG
382 26 10 0.000000 17.841000 1.831000 27.309978 # Oc LIG
383 27 10 0.000000 4.833000 24.362000 27.309978 # Oc LIG
384 20 8 0.000000 17.841000 0.722000 2.462500 # Oa LIG
385 28 8 0.000000 4.833000 23.254000 2.462500 # Oa LIG
386 20 9 0.000000 19.087000 1.603000 24.579979 # Ob LIG
387 21 9 0.000000 6.079000 24.135000 24.579979 # Ob LIG
388 28 9 0.000000 19.938000 5.907000 25.497980 # Ob LIG
389 28 9 0.000000 6.930000 28.438999 25.497980 # Ob LIG
390 28 9 0.000000 2.076000 8.218000 1.816500 # Ob LIG
391 28 9 0.000000 15.085000 30.750000 1.816500 # Ob LIG
392 28 10 0.000000 2.503000 7.026000 25.033979 # Oc LIG
393 28 10 0.000000 15.511000 29.556999 25.033979 # Oc LIG
394 28 10 0.000000 2.503000 22.047001 2.270500 # Oc LIG
395 28 10 0.000000 15.511000 44.577999 2.270500 # Oc LIG
396 28 10 0.000000 20.344000 8.856000 25.044979 # Oc LIG
397 28 10 0.000000 7.336000 31.388000 25.044979 # Oc LIG
398 28 8 0.000000 21.184999 6.789000 27.128979 # Oa LIG
399 28 8 0.000000 8.176000 29.320000 27.128979 # Oa LIG
400 28 10 0.000000 21.184000 5.680000 2.281500 # Oc LIG
401 28 10 0.000000 8.176000 28.212000 2.281500 # Oc LIG
402 28 8 0.000000 3.463000 7.579000 0.186500 # Oa LIG
403 28 8 0.000000 16.471001 30.111000 0.186500 # Oa LIG
404 28 8 0.000000 4.713000 6.720000 2.462500 # Oa LIG
405 28 8 0.000000 17.722000 29.250999 2.462500 # Oa LIG
406 28 8 0.000000 4.713000 21.740999 0.186500 # Oa LIG
407 28 8 0.000000 17.722000 44.271999 0.186500 # Oa LIG
408 28 9 0.000000 4.853000 5.200000 24.579979 # Ob LIG
409 28 9 0.000000 17.862000 27.731001 24.579979 # Ob LIG
410 28 9 0.000000 4.853000 20.221001 1.816500 # Ob LIG
411 28 9 0.000000 17.862000 42.751999 1.816500 # Ob LIG
412 28 10 0.000000 4.833000 9.341000 2.270500 # Oc LIG
413 28 10 0.000000 17.841000 31.872999 2.270500 # Oc LIG
414 28 8 0.000000 4.833000 8.232000 25.225979 # Oa LIG
415 28 8 0.000000 17.841000 30.764000 25.225979 # Oa LIG
416 28 10 0.000000 5.673000 6.165000 27.309978 # Oc LIG
417 28 10 0.000000 18.681999 28.697001 27.309978 # Oc LIG
418 28 10 0.000000 5.673000 21.186001 25.033979 # Oc LIG
419 28 10 0.000000 18.681000 43.717999 25.033979 # Oc LIG
420 28 9 0.000000 6.079000 9.114000 26.855980 # Ob LIG
421 28 9 0.000000 19.087000 31.645000 26.855980 # Ob LIG
422 28 9 0.000000 6.930000 13.418000 0.459500 # Ob LIG
423 28 9 0.000000 19.938000 35.949001 0.459500 # Ob LIG
424 28 10 0.000000 7.336000 1.345000 2.281500 # Oc LIG
425 28 10 0.000000 20.344000 23.877001 2.281500 # Oc LIG
426 28 10 0.000000 7.336000 16.365999 0.005500 # Oc LIG
427 28 10 0.000000 20.344000 38.897999 0.005500 # Oc LIG
428 28 8 0.000000 8.176000 14.299000 2.089500 # Oa LIG
429 28 8 0.000000 21.184999 36.831001 2.089500 # Oa LIG
430 28 10 0.000000 8.176000 13.190000 25.043980 # Oc LIG
431 28 10 0.000000 21.184000 35.722000 25.043980 # Oc LIG
432 28 9 0.000000 8.155000 2.311000 25.497980 # Ob LIG
433 28 9 0.000000 21.164000 24.841999 25.497980 # Ob LIG
434 28 9 0.000000 8.155000 17.332001 2.735500 # Ob LIG
435 28 9 0.000000 21.164000 39.862999 2.735500 # Ob LIG
436 28 8 0.000000 8.296000 0.791000 27.128979 # Oa LIG
437 28 8 0.000000 21.304001 23.322001 27.128979 # Oa LIG
438 28 8 0.000000 8.295000 15.812000 24.851978 # Oa LIG
439 28 8 0.000000 21.304001 38.342999 24.851978 # Oa LIG
440 18 8 0.000000 9.546000 14.952000 27.128979 # Oa LIG
441 19 8 0.000000 22.554001 37.484001 27.128979 # Oa LIG
442 5 5 0.000000 25.868000 7.878000 0.186500 # Cd LIG
443 6 5 0.000000 12.860000 30.409000 0.186500 # Cd LIG
444 5 3 0.000000 24.879999 7.373000 25.356979 # Cb LIG
445 28 3 0.000000 11.871000 29.905001 25.356979 # Cb LIG
446 1 3 0.000000 24.879999 22.393999 2.594500 # Cb LIG
447 28 3 0.000000 11.871000 44.925999 2.594500 # Cb LIG
448 5 4 0.000000 24.708000 7.749000 26.729979 # Cc LIG
449 6 4 0.000000 11.699000 30.280001 26.729979 # Cc LIG
450 1 2 0.000000 23.745001 22.209999 1.651500 # Ca LIG
451 2 2 0.000000 10.736000 44.741001 1.651500 # Ca LIG
452 1 2 0.000000 23.745001 7.188000 24.414980 # Ca LIG
453 2 2 0.000000 10.736000 29.719999 24.414980 # Ca LIG
454 3 2 0.000000 20.927999 9.459000 1.651500 # Ca LIG
455 4 2 0.000000 7.919000 31.990999 1.651500 # Ca LIG
456 7 4 0.000000 20.374001 19.791000 26.729979 # Cc LIG
457 8 4 0.000000 7.365000 42.323002 26.729979 # Cc LIG
458 3 2 0.000000 20.370001 20.905001 24.414980 # Ca LIG
459 2 2 0.000000 7.361000 43.437000 24.414980 # Ca LIG
460 11 3 0.000000 20.201000 10.350000 2.594500 # Cb LIG
461 12 3 0.000000 7.192000 32.881001 2.594500 # Cb LIG
462 13 3 0.000000 19.962999 19.830000 25.356979 # Cb LIG
463 14 3 0.000000 6.954000 42.362000 25.356979 # Cb LIG
464 7 5 0.000000 19.905001 18.722000 0.186500 # Cd LIG
465 8 5 0.000000 6.897000 41.252998 0.186500 # Cd LIG
466 11 5 0.000000 19.757000 11.578000 2.089500 # Cd LIG
467 12 5 0.000000 6.749000 34.110001 2.089500 # Cd LIG
468 13 5 0.000000 19.120001 18.830999 24.851978 # Cd LIG
469 14 5 0.000000 6.112000 41.362999 24.851978 # Cd LIG
470 7 3 0.000000 19.063000 17.723000 26.996979 # Cb LIG
471 8 3 0.000000 6.055000 40.254002 26.996979 # Cb LIG
472 11 4 0.000000 19.065001 12.519000 2.861500 # Cc LIG
473 12 4 0.000000 6.056000 35.050999 2.861500 # Cc LIG
474 9 2 0.000000 18.656000 16.646999 0.624500 # Ca LIG
475 10 2 0.000000 5.647000 39.179001 0.624500 # Ca LIG
476 13 4 0.000000 18.652000 17.761000 25.624979 # Cc LIG
477 14 4 0.000000 5.643000 40.292999 25.624979 # Cc LIG
478 28 5 0.000000 0.149000 7.143000 24.851978 # Cd LIG
479 28 5 0.000000 13.157000 29.674999 24.851978 # Cd LIG
480 28 5 0.000000 0.149000 22.164000 2.089500 # Cd LIG
481 28 5 0.000000 13.157000 44.695999 2.089500 # Cd LIG
482 28 3 0.000000 1.137000 7.648000 26.996979 # Cb LIG
483 6 3 0.000000 14.146000 30.179001 26.996979 # Cb LIG
484 28 4 0.000000 1.309000 22.292999 2.861500 # Cc LIG
485 28 4 0.000000 14.318000 44.825001 2.861500 # Cc LIG
486 28 4 0.000000 1.309000 7.272000 25.624979 # Cc LIG
487 28 4 0.000000 14.318000 29.804001 25.624979 # Cc LIG
488 18 2 0.000000 10.736000 14.699000 26.690979 # Ca LIG
489 19 2 0.000000 23.745001 37.230000 26.690979 # Ca LIG
490 16 4 0.000000 11.699000 15.259000 1.690500 # Cc LIG
491 17 4 0.000000 24.708000 37.791000 1.690500 # Cc LIG
492 15 4 0.000000 11.699000 0.238000 24.453979 # Cc LIG
493 4 4 0.000000 24.708000 22.770000 24.453979 # Cc LIG
494 24 3 0.000000 11.871000 14.884000 0.318500 # Cb LIG
495 17 3 0.000000 24.879999 37.415001 0.318500 # Cb LIG
496 15 5 0.000000 12.860000 0.367000 25.225979 # Cd LIG
497 4 5 0.000000 25.868999 22.899000 25.225979 # Cd LIG
498 16 5 0.000000 12.860000 15.388000 2.463500 # Cd LIG
499 17 5 0.000000 25.868000 37.919998 2.463500 # Cd LIG
500 24 5 0.000000 13.157000 14.654000 27.128979 # Cd LIG
501 25 5 0.000000 0.149000 37.185001 27.128979 # Cd LIG
502 16 3 0.000000 14.146000 15.158000 1.957500 # Cb LIG
503 25 3 0.000000 1.137000 37.689999 1.957500 # Cb LIG
504 15 3 0.000000 14.146000 0.137000 24.720980 # Cb LIG
505 21 3 0.000000 1.137000 22.669001 24.720980 # Cb LIG
506 24 4 0.000000 14.318000 14.783000 0.585500 # Cc LIG
507 25 4 0.000000 1.309000 37.313999 0.585500 # Cc LIG
508 20 2 0.000000 15.281000 0.322000 25.663979 # Ca LIG
509 21 2 0.000000 2.272000 22.854000 25.663979 # Ca LIG
510 5 2 0.000000 15.281000 15.343000 2.900500 # Ca LIG
511 6 2 0.000000 2.272000 37.875000 2.900500 # Ca LIG
512 22 2 0.000000 18.098000 13.072000 25.662979 # Ca LIG
513 23 2 0.000000 5.089000 35.604000 25.662979 # Ca LIG
514 26 4 0.000000 18.652000 2.740000 0.585500 # Cc LIG
515 27 4 0.000000 5.643000 25.271999 0.585500 # Cc LIG
516 20 2 0.000000 18.656000 1.626000 2.900500 # Ca LIG
517 28 2 0.000000 5.647000 24.158001 2.900500 # Ca LIG
518 28 3 0.000000 18.825001 12.182000 24.720980 # Cb LIG
519 28 3 0.000000 5.816000 34.714001 24.720980 # Cb LIG
520 28 3 0.000000 19.063000 2.701000 1.957500 # Cb LIG
521 28 3 0.000000 6.055000 25.233000 1.957500 # Cb LIG
522 26 5 0.000000 19.120001 3.810000 27.128979 # Cd LIG
523 27 5 0.000000 6.111000 26.341999 27.128979 # Cd LIG
524 28 5 0.000000 19.268999 10.953000 25.225979 # Cd LIG
525 28 5 0.000000 6.260000 33.485001 25.225979 # Cd LIG
526 28 5 0.000000 19.906000 3.700000 2.462500 # Cd LIG