LAMMPS data file. CGCMM style. atom_style full generated by VMD/TopoTools v1.5 on Tue Jun 13 18:10:54 PDT 2017
 1728 atoms
 256 bonds
 0 angles
 0 dihedrals
 0 impropers
 11 atom types
 1 bond types
 0 angle types
 0 dihedral types
 0 improper types
 1.890299 45.444300  xlo xhi
 -2.135943 41.388055  ylo yhi
 -0.000501 27.319499  zlo zhi

# Pair Coeffs
#
# 1  Ca
# 2  Cb
# 3  Cc
# 4  Cd
# 5  Cg
# 6  H
# 7  Ni
# 8  Oa
# 9  Ob
# 10  Oc
# 11  Og

 Masses

 1 12.011000 # Ca
 2 12.011000 # Cb
 3 12.011000 # Cc
 4 12.011000 # Cd
 5 12.011000 # Cg
 6 1.008000 # H
 7 58.693001 # Ni
 8 15.999000 # Oa
 9 15.999000 # Ob
 10 15.999000 # Oc
 11 15.999000 # Og

 Atoms

1 1 11 -0.325600 19.058868 28.981535 17.687998 # Og 
2 1 5 0.651200 19.058868 28.981535 16.527998 # Cg 
3 1 11 -0.325600 19.058868 28.981535 15.367998 # Og 
4 2 11 -0.325600 19.058868 28.982534 21.102997 # Og 
5 2 5 0.651200 19.058868 28.982534 19.942997 # Cg 
6 2 11 -0.325600 19.058868 28.982534 18.782997 # Og 
7 3 11 -0.325600 19.059868 28.983534 24.517998 # Og 
8 3 5 0.651200 19.059868 28.983534 23.357998 # Cg 
9 3 11 -0.325600 19.059868 28.983534 22.197998 # Og 
10 4 11 -0.325600 19.056099 28.992792 0.613000 # Og 
11 4 5 0.651200 19.060869 28.984533 26.772997 # Cg 
12 4 11 -0.325600 19.060869 28.984533 25.612997 # Og 
13 5 11 -0.325600 19.056099 28.994791 4.027000 # Og 
14 5 5 0.651200 19.056099 28.994791 2.867000 # Cg 
15 5 11 -0.325600 19.056099 28.994791 1.707000 # Og 
16 6 11 -0.325600 19.057098 28.995790 7.442000 # Og 
17 6 5 0.651200 19.057098 28.995790 6.282000 # Cg 
18 6 11 -0.325600 19.057098 28.995790 5.122000 # Og 
19 7 11 -0.325600 19.057098 28.996792 10.857000 # Og 
20 7 5 0.651200 19.057098 28.996792 9.697000 # Cg 
21 7 11 -0.325600 19.057098 28.996792 8.537000 # Og 
22 8 11 -0.325600 19.058100 28.997791 14.272000 # Og 
23 8 5 0.651200 19.058100 28.997791 13.112000 # Cg 
24 8 11 -0.325600 19.058100 28.997791 11.952000 # Og 
25 9 11 -0.325600 13.614866 38.403534 17.687998 # Og 
26 9 5 0.651200 13.614866 38.403534 16.527998 # Cg 
27 9 11 -0.325600 13.614866 38.403534 15.367998 # Og 
28 10 11 -0.325600 13.615866 38.404533 21.102997 # Og 
29 10 5 0.651200 13.615866 38.404533 19.942997 # Cg 
30 10 11 -0.325600 13.615866 38.404533 18.782997 # Og 
31 11 11 -0.325600 13.615866 38.405533 24.517998 # Og 
32 11 5 0.651200 13.615866 38.405533 23.357998 # Cg 
33 11 11 -0.325600 13.615866 38.405533 22.197998 # Og 
34 12 11 -0.325600 13.612097 38.414791 0.613000 # Og 
35 12 5 0.651200 13.616869 38.406532 26.772997 # Cg 
36 12 11 -0.325600 13.616869 38.406532 25.612997 # Og 
37 13 11 -0.325600 13.612097 38.415791 4.027000 # Og 
38 13 5 0.651200 13.612097 38.415791 2.867000 # Cg 
39 13 11 -0.325600 13.612097 38.415791 1.707000 # Og 
40 14 11 -0.325600 13.613100 38.416790 7.442000 # Og 
41 14 5 0.651200 13.613100 38.416790 6.282000 # Cg 
42 14 11 -0.325600 13.613100 38.416790 5.122000 # Og 
43 15 11 -0.325600 13.614100 38.417789 10.857000 # Og 
44 15 5 0.651200 13.614100 38.417789 9.697000 # Cg 
45 15 11 -0.325600 13.614100 38.417789 8.537000 # Og 
46 16 11 -0.325600 13.614100 38.418789 14.272000 # Og 
47 16 5 0.651200 13.614100 38.418789 13.112000 # Cg 
48 16 11 -0.325600 13.614100 38.418789 11.952000 # Og 
49 17 11 -0.325600 29.946020 10.139243 17.687998 # Og 
50 17 5 0.651200 29.946020 10.139243 16.527998 # Cg 
51 17 11 -0.325600 29.946020 10.139243 15.367998 # Og 
52 18 11 -0.325600 29.947020 10.140244 21.102997 # Og 
53 18 5 0.651200 29.947020 10.140244 19.942997 # Cg 
54 18 11 -0.325600 29.947020 10.140244 18.782997 # Og 
55 19 11 -0.325600 29.947020 10.141243 24.517998 # Og 
56 19 5 0.651200 29.947020 10.141243 23.357998 # Cg 
57 19 11 -0.325600 29.947020 10.141243 22.197998 # Og 
58 20 11 -0.325600 29.943251 10.150499 0.613000 # Og 
59 20 5 0.651200 29.948019 10.142243 26.772997 # Cg 
60 20 11 -0.325600 29.948019 10.142243 25.612997 # Og 
61 21 11 -0.325600 29.944250 10.151500 4.027000 # Og 
62 21 5 0.651200 29.944250 10.151500 2.867000 # Cg 
63 21 11 -0.325600 29.944250 10.151500 1.707000 # Og 
64 22 11 -0.325600 29.944250 10.152500 7.442000 # Og 
65 22 5 0.651200 29.944250 10.152500 6.282000 # Cg 
66 22 11 -0.325600 29.944250 10.152500 5.122000 # Og 
67 23 11 -0.325600 29.945251 10.153500 10.857000 # Og 
68 23 5 0.651200 29.945251 10.153500 9.697000 # Cg 
69 23 11 -0.325600 29.945251 10.153500 8.537000 # Og 
70 24 11 -0.325600 29.945251 10.154500 14.272000 # Og 
71 24 5 0.651200 29.945251 10.154500 13.112000 # Cg 
72 24 11 -0.325600 29.945251 10.154500 11.952000 # Og 
73 25 11 -0.325600 24.502020 19.560244 17.687998 # Og 
74 25 5 0.651200 24.502020 19.560244 16.527998 # Cg 
75 25 11 -0.325600 24.502020 19.560244 15.367998 # Og 
76 26 11 -0.325600 24.503019 19.561243 21.102997 # Og 
77 26 5 0.651200 24.503019 19.561243 19.942997 # Cg 
78 26 11 -0.325600 24.503019 19.561243 18.782997 # Og 
79 27 11 -0.325600 24.504019 19.562243 24.517998 # Og 
80 27 5 0.651200 24.504019 19.562243 23.357998 # Cg 
81 27 11 -0.325600 24.504019 19.562243 22.197998 # Og 
82 28 11 -0.325600 24.499250 19.571499 0.613000 # Og 
83 28 5 0.651200 24.504019 19.563242 26.772997 # Cg 
84 28 11 -0.325600 24.504019 19.563242 25.612997 # Og 
85 29 11 -0.325600 24.500252 19.573500 4.027000 # Og 
86 29 5 0.651200 24.500252 19.573500 2.867000 # Cg 
87 29 11 -0.325600 24.500252 19.573500 1.707000 # Og 
88 30 11 -0.325600 24.500252 19.574499 7.442000 # Og 
89 30 5 0.651200 24.500252 19.574499 6.282000 # Cg 
90 30 11 -0.325600 24.500252 19.574499 5.122000 # Og 
91 31 11 -0.325600 24.501251 19.575500 10.857000 # Og 
92 31 5 0.651200 24.501251 19.575500 9.697000 # Cg 
93 31 11 -0.325600 24.501251 19.575500 8.537000 # Og 
94 32 11 -0.325600 24.502251 19.576500 14.272000 # Og 
95 32 5 0.651200 24.502251 19.576500 13.112000 # Cg 
96 32 11 -0.325600 24.502251 19.576500 11.952000 # Og 
97 33 11 -0.325600 29.946869 28.981535 17.687998 # Og 
98 33 5 0.651200 29.946869 28.981535 16.527998 # Cg 
99 33 11 -0.325600 29.946869 28.981535 15.367998 # Og 
100 34 11 -0.325600 29.947868 28.982534 21.102997 # Og 
101 34 5 0.651200 29.947868 28.982534 19.942997 # Cg 
102 34 11 -0.325600 29.947868 28.982534 18.782997 # Og 
103 35 11 -0.325600 29.948868 28.983534 24.517998 # Og 
104 35 5 0.651200 29.948868 28.983534 23.357998 # Cg 
105 35 11 -0.325600 29.948868 28.983534 22.197998 # Og 
106 36 11 -0.325600 29.944099 28.992792 0.613000 # Og 
107 36 5 0.651200 29.948868 28.984533 26.772997 # Cg 
108 36 11 -0.325600 29.948868 28.984533 25.612997 # Og 
109 37 11 -0.325600 29.945099 28.994791 4.027000 # Og 
110 37 5 0.651200 29.945099 28.994791 2.867000 # Cg 
111 37 11 -0.325600 29.945099 28.994791 1.707000 # Og 
112 38 11 -0.325600 29.945099 28.995790 7.442000 # Og 
113 38 5 0.651200 29.945099 28.995790 6.282000 # Cg 
114 38 11 -0.325600 29.945099 28.995790 5.122000 # Og 
115 39 11 -0.325600 29.946098 28.996792 10.857000 # Og 
116 39 5 0.651200 29.946098 28.996792 9.697000 # Cg 
117 39 11 -0.325600 29.946098 28.996792 8.537000 # Og 
118 40 11 -0.325600 29.947100 28.997791 14.272000 # Og 
119 40 5 0.651200 29.947100 28.997791 13.112000 # Cg 
120 40 11 -0.325600 29.947100 28.997791 11.952000 # Og 
121 41 11 -0.325600 24.503868 38.403534 17.687998 # Og 
122 41 5 0.651200 24.503868 38.403534 16.527998 # Cg 
123 41 11 -0.325600 24.503868 38.403534 15.367998 # Og 
124 42 11 -0.325600 24.503868 38.404533 21.102997 # Og 
125 42 5 0.651200 24.503868 38.404533 19.942997 # Cg 
126 42 11 -0.325600 24.503868 38.404533 18.782997 # Og 
127 43 11 -0.325600 24.504868 38.405533 24.517998 # Og 
128 43 5 0.651200 24.504868 38.405533 23.357998 # Cg 
129 43 11 -0.325600 24.504868 38.405533 22.197998 # Og 
130 44 11 -0.325600 24.500099 38.414791 0.613000 # Og 
131 44 5 0.651200 24.504868 38.406532 26.772997 # Cg 
132 44 11 -0.325600 24.504868 38.406532 25.612997 # Og 
133 45 11 -0.325600 24.501099 38.415791 4.027000 # Og 
134 45 5 0.651200 24.501099 38.415791 2.867000 # Cg 
135 45 11 -0.325600 24.501099 38.415791 1.707000 # Og 
136 46 11 -0.325600 24.502098 38.416790 7.442000 # Og 
137 46 5 0.651200 24.502098 38.416790 6.282000 # Cg 
138 46 11 -0.325600 24.502098 38.416790 5.122000 # Og 
139 47 11 -0.325600 24.502098 38.417789 10.857000 # Og 
140 47 5 0.651200 24.502098 38.417789 9.697000 # Cg 
141 47 11 -0.325600 24.502098 38.417789 8.537000 # Og 
142 48 11 -0.325600 24.503099 38.418789 14.272000 # Og 
143 48 5 0.651200 24.503099 38.418789 13.112000 # Cg 
144 48 11 -0.325600 24.503099 38.418789 11.952000 # Og 
145 49 11 -0.325600 40.835022 10.139243 17.687998 # Og 
146 49 5 0.651200 40.835022 10.139243 16.527998 # Cg 
147 49 11 -0.325600 40.835022 10.139243 15.367998 # Og 
148 50 11 -0.325600 40.835022 10.140244 21.102997 # Og 
149 50 5 0.651200 40.835022 10.140244 19.942997 # Cg 
150 50 11 -0.325600 40.835022 10.140244 18.782997 # Og 
151 51 11 -0.325600 40.836021 10.141243 24.517998 # Og 
152 51 5 0.651200 40.836021 10.141243 23.357998 # Cg 
153 51 11 -0.325600 40.836021 10.141243 22.197998 # Og 
154 52 11 -0.325600 40.832253 10.150499 0.613000 # Og 
155 52 5 0.651200 40.837021 10.142243 26.772997 # Cg 
156 52 11 -0.325600 40.837021 10.142243 25.612997 # Og 
157 53 11 -0.325600 40.832253 10.151500 4.027000 # Og 
158 53 5 0.651200 40.832253 10.151500 2.867000 # Cg 
159 53 11 -0.325600 40.832253 10.151500 1.707000 # Og 
160 54 11 -0.325600 40.833252 10.152500 7.442000 # Og 
161 54 5 0.651200 40.833252 10.152500 6.282000 # Cg 
162 54 11 -0.325600 40.833252 10.152500 5.122000 # Og 
163 55 11 -0.325600 40.833252 10.153500 10.857000 # Og 
164 55 5 0.651200 40.833252 10.153500 9.697000 # Cg 
165 55 11 -0.325600 40.833252 10.153500 8.537000 # Og 
166 56 11 -0.325600 40.834251 10.154500 14.272000 # Og 
167 56 5 0.651200 40.834251 10.154500 13.112000 # Cg 
168 56 11 -0.325600 40.834251 10.154500 11.952000 # Og 
169 57 11 -0.325600 35.391022 19.560244 17.687998 # Og 
170 57 5 0.651200 35.391022 19.560244 16.527998 # Cg 
171 57 11 -0.325600 35.391022 19.560244 15.367998 # Og 
172 58 11 -0.325600 35.392021 19.561243 21.102997 # Og 
173 58 5 0.651200 35.392021 19.561243 19.942997 # Cg 
174 58 11 -0.325600 35.392021 19.561243 18.782997 # Og 
175 59 11 -0.325600 35.392021 19.562243 24.517998 # Og 
176 59 5 0.651200 35.392021 19.562243 23.357998 # Cg 
177 59 11 -0.325600 35.392021 19.562243 22.197998 # Og 
178 60 11 -0.325600 35.388252 19.571499 0.613000 # Og 
179 60 5 0.651200 35.393021 19.563242 26.772997 # Cg 
180 60 11 -0.325600 35.393021 19.563242 25.612997 # Og 
181 61 11 -0.325600 35.388252 19.573500 4.027000 # Og 
182 61 5 0.651200 35.388252 19.573500 2.867000 # Cg 
183 61 11 -0.325600 35.388252 19.573500 1.707000 # Og 
184 62 11 -0.325600 35.389252 19.574499 7.442000 # Og 
185 62 5 0.651200 35.389252 19.574499 6.282000 # Cg 
186 62 11 -0.325600 35.389252 19.574499 5.122000 # Og 
187 63 11 -0.325600 35.390251 19.575500 10.857000 # Og 
188 63 5 0.651200 35.390251 19.575500 9.697000 # Cg 
189 63 11 -0.325600 35.390251 19.575500 8.537000 # Og 
190 64 11 -0.325600 35.390251 19.576500 14.272000 # Og 
191 64 5 0.651200 35.390251 19.576500 13.112000 # Cg 
192 64 11 -0.325600 35.390251 19.576500 11.952000 # Og 
193 65 11 -0.325600 40.835869 28.981535 17.687998 # Og 
194 65 5 0.651200 40.835869 28.981535 16.527998 # Cg 
195 65 11 -0.325600 40.835869 28.981535 15.367998 # Og 
196 66 11 -0.325600 40.835869 28.982534 21.102997 # Og 
197 66 5 0.651200 40.835869 28.982534 19.942997 # Cg 
198 66 11 -0.325600 40.835869 28.982534 18.782997 # Og 
199 67 11 -0.325600 40.836868 28.983534 24.517998 # Og 
200 67 5 0.651200 40.836868 28.983534 23.357998 # Cg 
201 67 11 -0.325600 40.836868 28.983534 22.197998 # Og 
202 68 11 -0.325600 40.833099 28.992792 0.613000 # Og 
203 68 5 0.651200 40.837868 28.984533 26.772997 # Cg 
204 68 11 -0.325600 40.837868 28.984533 25.612997 # Og 
205 69 11 -0.325600 40.833099 28.994791 4.027000 # Og 
206 69 5 0.651200 40.833099 28.994791 2.867000 # Cg 
207 69 11 -0.325600 40.833099 28.994791 1.707000 # Og 
208 70 11 -0.325600 40.834099 28.995790 7.442000 # Og 
209 70 5 0.651200 40.834099 28.995790 6.282000 # Cg 
210 70 11 -0.325600 40.834099 28.995790 5.122000 # Og 
211 71 11 -0.325600 40.834099 28.996792 10.857000 # Og 
212 71 5 0.651200 40.834099 28.996792 9.697000 # Cg 
213 71 11 -0.325600 40.834099 28.996792 8.537000 # Og 
214 72 11 -0.325600 40.835098 28.997791 14.272000 # Og 
215 72 5 0.651200 40.835098 28.997791 13.112000 # Cg 
216 72 11 -0.325600 40.835098 28.997791 11.952000 # Og 
217 73 11 -0.325600 35.391869 38.403534 17.687998 # Og 
218 73 5 0.651200 35.391869 38.403534 16.527998 # Cg 
219 73 11 -0.325600 35.391869 38.403534 15.367998 # Og 
220 74 11 -0.325600 35.392868 38.404533 21.102997 # Og 
221 74 5 0.651200 35.392868 38.404533 19.942997 # Cg 
222 74 11 -0.325600 35.392868 38.404533 18.782997 # Og 
223 75 11 -0.325600 35.392868 38.405533 24.517998 # Og 
224 75 5 0.651200 35.392868 38.405533 23.357998 # Cg 
225 75 11 -0.325600 35.392868 38.405533 22.197998 # Og 
226 76 11 -0.325600 35.389099 38.414791 0.613000 # Og 
227 76 5 0.651200 35.393867 38.406532 26.772997 # Cg 
228 76 11 -0.325600 35.393867 38.406532 25.612997 # Og 
229 77 11 -0.325600 35.389099 38.415791 4.027000 # Og 
230 77 5 0.651200 35.389099 38.415791 2.867000 # Cg 
231 77 11 -0.325600 35.389099 38.415791 1.707000 # Og 
232 78 11 -0.325600 35.390099 38.416790 7.442000 # Og 
233 78 5 0.651200 35.390099 38.416790 6.282000 # Cg 
234 78 11 -0.325600 35.390099 38.416790 5.122000 # Og 
235 79 11 -0.325600 35.391098 38.417789 10.857000 # Og 
236 79 5 0.651200 35.391098 38.417789 9.697000 # Cg 
237 79 11 -0.325600 35.391098 38.417789 8.537000 # Og 
238 80 11 -0.325600 35.391098 38.418789 14.272000 # Og 
239 80 5 0.651200 35.391098 38.418789 13.112000 # Cg 
240 80 11 -0.325600 35.391098 38.418789 11.952000 # Og 
241 81 11 -0.325600 8.169020 10.139243 17.687998 # Og 
242 81 5 0.651200 8.169020 10.139243 16.527998 # Cg 
243 81 11 -0.325600 8.169020 10.139243 15.367998 # Og 
244 82 11 -0.325600 8.170019 10.140244 21.102997 # Og 
245 82 5 0.651200 8.170019 10.140244 19.942997 # Cg 
246 82 11 -0.325600 8.170019 10.140244 18.782997 # Og 
247 83 11 -0.325600 8.170019 10.141243 24.517998 # Og 
248 83 5 0.651200 8.170019 10.141243 23.357998 # Cg 
249 83 11 -0.325600 8.170019 10.141243 22.197998 # Og 
250 84 11 -0.325600 8.166250 10.150499 0.613000 # Og 
251 84 5 0.651200 8.171020 10.142243 26.772997 # Cg 
252 84 11 -0.325600 8.171020 10.142243 25.612997 # Og 
253 85 11 -0.325600 8.167250 10.151500 4.027000 # Og 
254 85 5 0.651200 8.167250 10.151500 2.867000 # Cg 
255 85 11 -0.325600 8.167250 10.151500 1.707000 # Og 
256 86 11 -0.325600 8.167250 10.152500 7.442000 # Og 
257 86 5 0.651200 8.167250 10.152500 6.282000 # Cg 
258 86 11 -0.325600 8.167250 10.152500 5.122000 # Og 
259 87 11 -0.325600 8.168250 10.153500 10.857000 # Og 
260 87 5 0.651200 8.168250 10.153500 9.697000 # Cg 
261 87 11 -0.325600 8.168250 10.153500 8.537000 # Og 
262 88 11 -0.325600 8.168250 10.154500 14.272000 # Og 
263 88 5 0.651200 8.168250 10.154500 13.112000 # Cg 
264 88 11 -0.325600 8.168250 10.154500 11.952000 # Og 
265 89 11 -0.325600 46.279022 19.560244 17.687998 # Og 
266 89 5 0.651200 46.279022 19.560244 16.527998 # Cg 
267 89 11 -0.325600 46.279022 19.560244 15.367998 # Og 
268 90 11 -0.325600 46.280022 19.561243 21.102997 # Og 
269 90 5 0.651200 46.280022 19.561243 19.942997 # Cg 
270 90 11 -0.325600 46.280022 19.561243 18.782997 # Og 
271 91 11 -0.325600 46.281021 19.562243 24.517998 # Og 
272 91 5 0.651200 46.281021 19.562243 23.357998 # Cg 
273 91 11 -0.325600 46.281021 19.562243 22.197998 # Og 
274 92 11 -0.325600 46.276253 19.571499 0.613000 # Og 
275 92 5 0.651200 46.281021 19.563242 26.772997 # Cg 
276 92 11 -0.325600 46.281021 19.563242 25.612997 # Og 
277 93 11 -0.325600 46.277252 19.573500 4.027000 # Og 
278 93 5 0.651200 46.277252 19.573500 2.867000 # Cg 
279 93 11 -0.325600 46.277252 19.573500 1.707000 # Og 
280 94 11 -0.325600 46.277252 19.574499 7.442000 # Og 
281 94 5 0.651200 46.277252 19.574499 6.282000 # Cg 
282 94 11 -0.325600 46.277252 19.574499 5.122000 # Og 
283 95 11 -0.325600 46.278252 19.575500 10.857000 # Og 
284 95 5 0.651200 46.278252 19.575500 9.697000 # Cg 
285 95 11 -0.325600 46.278252 19.575500 8.537000 # Og 
286 96 11 -0.325600 46.279251 19.576500 14.272000 # Og 
287 96 5 0.651200 46.279251 19.576500 13.112000 # Cg 
288 96 11 -0.325600 46.279251 19.576500 11.952000 # Og 
289 97 11 -0.325600 8.169867 28.981535 17.687998 # Og 
290 97 5 0.651200 8.169867 28.981535 16.527998 # Cg 
291 97 11 -0.325600 8.169867 28.981535 15.367998 # Og 
292 98 11 -0.325600 8.170866 28.982534 21.102997 # Og 
293 98 5 0.651200 8.170866 28.982534 19.942997 # Cg 
294 98 11 -0.325600 8.170866 28.982534 18.782997 # Og 
295 99 11 -0.325600 8.171865 28.983534 24.517998 # Og 
296 99 5 0.651200 8.171865 28.983534 23.357998 # Cg 
297 99 11 -0.325600 8.171865 28.983534 22.197998 # Og 
298 100 11 -0.325600 8.167097 28.992792 0.613000 # Og 
299 100 5 0.651200 8.171865 28.984533 26.772997 # Cg 
300 100 11 -0.325600 8.171865 28.984533 25.612997 # Og 
301 101 11 -0.325600 8.168098 28.994791 4.027000 # Og 
302 101 5 0.651200 8.168098 28.994791 2.867000 # Cg 
303 101 11 -0.325600 8.168098 28.994791 1.707000 # Og 
304 102 11 -0.325600 8.168098 28.995790 7.442000 # Og 
305 102 5 0.651200 8.168098 28.995790 6.282000 # Cg 
306 102 11 -0.325600 8.168098 28.995790 5.122000 # Og 
307 103 11 -0.325600 8.169098 28.996792 10.857000 # Og 
308 103 5 0.651200 8.169098 28.996792 9.697000 # Cg 
309 103 11 -0.325600 8.169098 28.996792 8.537000 # Og 
310 104 11 -0.325600 8.170097 28.997791 14.272000 # Og 
311 104 5 0.651200 8.170097 28.997791 13.112000 # Cg 
312 104 11 -0.325600 8.170097 28.997791 11.952000 # Og 
313 105 11 -0.325600 46.280869 38.403534 17.687998 # Og 
314 105 5 0.651200 46.280869 38.403534 16.527998 # Cg 
315 105 11 -0.325600 46.280869 38.403534 15.367998 # Og 
316 106 11 -0.325600 46.280869 38.404533 21.102997 # Og 
317 106 5 0.651200 46.280869 38.404533 19.942997 # Cg 
318 106 11 -0.325600 46.280869 38.404533 18.782997 # Og 
319 107 11 -0.325600 46.281868 38.405533 24.517998 # Og 
320 107 5 0.651200 46.281868 38.405533 23.357998 # Cg 
321 107 11 -0.325600 46.281868 38.405533 22.197998 # Og 
322 108 11 -0.325600 46.277100 38.414791 0.613000 # Og 
323 108 5 0.651200 46.281868 38.406532 26.772997 # Cg 
324 108 11 -0.325600 46.281868 38.406532 25.612997 # Og 
325 109 11 -0.325600 46.278099 38.415791 4.027000 # Og 
326 109 5 0.651200 46.278099 38.415791 2.867000 # Cg 
327 109 11 -0.325600 46.278099 38.415791 1.707000 # Og 
328 110 11 -0.325600 46.279099 38.416790 7.442000 # Og 
329 110 5 0.651200 46.279099 38.416790 6.282000 # Cg 
330 110 11 -0.325600 46.279099 38.416790 5.122000 # Og 
331 111 11 -0.325600 46.279099 38.417789 10.857000 # Og 
332 111 5 0.651200 46.279099 38.417789 9.697000 # Cg 
333 111 11 -0.325600 46.279099 38.417789 8.537000 # Og 
334 112 11 -0.325600 46.280098 38.418789 14.272000 # Og 
335 112 5 0.651200 46.280098 38.418789 13.112000 # Cg 
336 112 11 -0.325600 46.280098 38.418789 11.952000 # Og 
337 113 11 -0.325600 19.058020 10.139243 17.687998 # Og 
338 113 5 0.651200 19.058020 10.139243 16.527998 # Cg 
339 113 11 -0.325600 19.058020 10.139243 15.367998 # Og 
340 114 11 -0.325600 19.058020 10.140244 21.102997 # Og 
341 114 5 0.651200 19.058020 10.140244 19.942997 # Cg 
342 114 11 -0.325600 19.058020 10.140244 18.782997 # Og 
343 115 11 -0.325600 19.059019 10.141243 24.517998 # Og 
344 115 5 0.651200 19.059019 10.141243 23.357998 # Cg 
345 115 11 -0.325600 19.059019 10.141243 22.197998 # Og 
346 116 11 -0.325600 19.055250 10.150499 0.613000 # Og 
347 116 5 0.651200 19.060020 10.142243 26.772997 # Cg 
348 116 11 -0.325600 19.060020 10.142243 25.612997 # Og 
349 117 11 -0.325600 19.055250 10.151500 4.027000 # Og 
350 117 5 0.651200 19.055250 10.151500 2.867000 # Cg 
351 117 11 -0.325600 19.055250 10.151500 1.707000 # Og 
352 118 11 -0.325600 19.056252 10.152500 7.442000 # Og 
353 118 5 0.651200 19.056252 10.152500 6.282000 # Cg 
354 118 11 -0.325600 19.056252 10.152500 5.122000 # Og 
355 119 11 -0.325600 19.056252 10.153500 10.857000 # Og 
356 119 5 0.651200 19.056252 10.153500 9.697000 # Cg 
357 119 11 -0.325600 19.056252 10.153500 8.537000 # Og 
358 120 11 -0.325600 19.057251 10.154500 14.272000 # Og 
359 120 5 0.651200 19.057251 10.154500 13.112000 # Cg 
360 120 11 -0.325600 19.057251 10.154500 11.952000 # Og 
361 121 11 -0.325600 13.614019 19.560244 17.687998 # Og 
362 121 5 0.651200 13.614019 19.560244 16.527998 # Cg 
363 121 11 -0.325600 13.614019 19.560244 15.367998 # Og 
364 122 11 -0.325600 13.615020 19.561243 21.102997 # Og 
365 122 5 0.651200 13.615020 19.561243 19.942997 # Cg 
366 122 11 -0.325600 13.615020 19.561243 18.782997 # Og 
367 123 11 -0.325600 13.615020 19.562243 24.517998 # Og 
368 123 5 0.651200 13.615020 19.562243 23.357998 # Cg 
369 123 11 -0.325600 13.615020 19.562243 22.197998 # Og 
370 124 11 -0.325600 13.611250 19.571499 0.613000 # Og 
371 124 5 0.651200 13.616019 19.563242 26.772997 # Cg 
372 124 11 -0.325600 13.616019 19.563242 25.612997 # Og 
373 125 11 -0.325600 13.611250 19.573500 4.027000 # Og 
374 125 5 0.651200 13.611250 19.573500 2.867000 # Cg 
375 125 11 -0.325600 13.611250 19.573500 1.707000 # Og 
376 126 11 -0.325600 13.612250 19.574499 7.442000 # Og 
377 126 5 0.651200 13.612250 19.574499 6.282000 # Cg 
378 126 11 -0.325600 13.612250 19.574499 5.122000 # Og 
379 127 11 -0.325600 13.613250 19.575500 10.857000 # Og 
380 127 5 0.651200 13.613250 19.575500 9.697000 # Cg 
381 127 11 -0.325600 13.613250 19.575500 8.537000 # Og 
382 128 11 -0.325600 13.613250 19.576500 14.272000 # Og 
383 128 5 0.651200 13.613250 19.576500 13.112000 # Cg 
384 128 11 -0.325600 13.613250 19.576500 11.952000 # Og 
385 129 6 0.130252 23.315117 36.931614 22.406998 # H LIG
386 129 6 0.130252 28.460117 30.566614 18.028000 # H LIG
387 129 6 0.130252 28.359118 28.288612 23.890999 # H LIG
388 129 6 0.130252 27.106117 29.963614 20.128998 # H LIG
389 129 6 0.130252 10.275270 0.999322 21.603998 # H LIG
390 129 6 0.130252 30.033119 37.634613 22.571999 # H LIG
391 129 6 0.130252 31.257118 36.723614 17.855000 # H LIG
392 129 6 0.130252 21.215117 36.630615 19.323999 # H LIG
393 129 6 0.130252 23.141117 35.414612 20.292000 # H LIG
394 129 6 0.130252 42.141270 0.946322 18.570000 # H LIG
395 129 6 0.130252 32.109268 1.032322 17.100998 # H LIG
396 129 6 0.130252 34.033272 2.250322 22.961998 # H LIG
397 129 6 0.130252 39.296268 9.384321 19.382999 # H LIG
398 129 6 0.130252 34.207268 0.735322 20.848000 # H LIG
399 129 6 0.130252 39.397270 7.109322 18.413998 # H LIG
400 129 6 0.130252 40.915268 0.036322 20.683998 # H LIG
401 129 6 0.130252 21.158117 36.664612 21.651999 # H LIG
402 129 6 0.130252 37.972271 7.711321 23.122999 # H LIG
403 129 7 1.286340 26.686117 33.660614 18.158998 # Ni LIG
404 129 7 1.286340 28.262117 34.517612 22.712999 # Ni LIG
405 129 7 1.286340 26.730118 35.453613 20.435999 # Ni LIG
406 129 7 1.286340 37.618271 2.221323 22.818998 # Ni LIG
407 129 7 1.286340 37.573269 4.017322 18.266998 # Ni LIG
408 129 7 1.286340 39.149269 3.158322 20.542999 # Ni LIG
409 129 3 0.449622 27.866117 31.570614 23.056999 # Cc LIG
410 129 2 -0.116375 24.340118 35.890614 17.132000 # Cb LIG
411 129 4 -0.185445 23.243118 36.598614 23.443998 # Cd LIG
412 129 2 -0.116375 22.106117 36.887615 17.368999 # Cb LIG
413 129 4 -0.185445 28.087118 29.147614 23.273998 # Cd LIG
414 129 4 -0.185445 28.154118 30.414614 23.821999 # Cd LIG
415 129 1 0.833564 25.448118 35.605614 23.021000 # Ca LIG
416 129 3 0.449622 29.475117 36.592613 20.778999 # Cc LIG
417 129 2 -0.116375 27.492117 31.370613 21.685999 # Cb LIG
418 129 4 -0.185445 27.421118 30.065613 21.167999 # Cd LIG
419 129 2 -0.116375 27.726118 28.935612 21.925999 # Cb LIG
420 129 4 -0.185445 9.675269 0.324322 20.991999 # Cd LIG
421 129 4 -0.185445 30.323116 37.433613 21.539000 # Cd LIG
422 129 1 0.833564 27.193117 32.471615 20.743999 # Ca LIG
423 129 3 0.449622 24.324118 35.460613 18.500999 # Cc LIG
424 129 2 -0.116375 29.839119 36.362614 19.410000 # Cb LIG
425 129 4 -0.185445 31.006119 36.952614 18.891998 # Cd LIG
426 129 2 -0.116375 10.048268 0.103322 19.647999 # Cb LIG
427 129 4 -0.185445 22.102118 36.453613 18.711998 # Cd LIG
428 129 4 -0.185445 23.169117 35.766613 19.259998 # Cd LIG
429 129 1 0.833564 29.037117 35.550613 18.467999 # Ca LIG
430 129 3 0.449622 35.214272 2.210322 17.924000 # Cc LIG
431 129 2 -0.116375 40.726269 1.310322 23.844999 # Cb LIG
432 129 4 -0.185445 41.889271 0.718322 17.532999 # Cd LIG
433 129 2 -0.116375 20.933117 37.562614 23.607998 # Cb LIG
434 129 4 -0.185445 32.995270 1.211322 17.712999 # Cd LIG
435 129 4 -0.185445 34.061272 1.900322 17.163998 # Cd LIG
436 129 1 0.833564 39.925270 2.128322 17.956999 # Ca LIG
437 129 3 0.449622 38.762268 6.105322 20.202000 # Cc LIG
438 129 2 -0.116375 35.231270 1.780322 19.292999 # Cb LIG
439 129 4 -0.185445 34.135269 1.067322 19.811998 # Cd LIG
440 129 2 -0.116375 32.999271 0.779322 19.056999 # Cb LIG
441 129 4 -0.185445 39.004269 8.527321 19.993000 # Cd LIG
442 129 4 -0.185445 39.072269 7.259322 19.443998 # Cd LIG
443 129 1 0.833564 36.337269 2.066322 20.233999 # Ca LIG
444 129 3 0.449622 40.361271 1.081322 22.475998 # Cc LIG
445 129 2 -0.116375 38.376270 6.304323 21.568998 # Cb LIG
446 129 4 -0.185445 38.300270 7.609322 22.087999 # Cd LIG
447 129 2 -0.116375 38.618271 8.739323 21.334000 # Cb LIG
448 129 4 -0.185445 20.560118 37.342613 22.264000 # Cd LIG
449 129 4 -0.185445 41.205269 0.236322 21.716000 # Cd LIG
450 129 1 0.833564 38.074268 5.203322 22.510998 # Ca LIG
451 129 10 -0.719651 39.266270 1.569322 21.870998 # Oc LIG
452 129 8 -0.731428 38.222271 3.983323 22.092999 # Oa LIG
453 129 9 -0.720115 40.317268 2.323322 19.148998 # Ob LIG
454 129 10 -0.719651 38.891270 4.913322 19.594999 # Oc LIG
455 129 8 -0.731428 37.322269 2.800322 19.815998 # Oa LIG
456 129 9 -0.720115 37.709270 5.444322 23.703999 # Ob LIG
457 129 10 -0.719651 36.184269 2.916322 17.319000 # Oc LIG
458 129 8 -0.731428 38.797272 2.614322 17.538998 # Oa LIG
459 129 9 -0.720115 36.310268 1.628322 21.426998 # Ob LIG
460 129 10 -0.719651 25.295118 34.757614 19.107998 # Oc LIG
461 129 8 -0.731428 27.907118 35.068615 18.884998 # Oa LIG
462 129 9 -0.720115 25.420118 36.043613 21.828999 # Ob LIG
463 129 10 -0.719651 28.001118 32.762615 23.660000 # Oc LIG
464 129 8 -0.731428 26.434118 34.873611 23.438999 # Oa LIG
465 129 9 -0.720115 26.827118 32.230614 19.550999 # Ob LIG
466 129 10 -0.719651 28.378119 36.108612 21.383999 # Oc LIG
467 129 8 -0.731428 27.341118 33.692612 21.160999 # Oa LIG
468 129 9 -0.720115 29.430119 35.353615 17.275999 # Ob LIG
469 129 6 0.130252 23.311541 36.941936 1.917000 # H LIG
470 129 6 0.130252 28.461311 30.568680 24.857998 # H LIG
471 129 6 0.130252 28.355541 28.298935 3.401000 # H LIG
472 129 6 0.130252 27.107311 29.965679 26.958998 # H LIG
473 129 6 0.130252 10.271692 1.009645 1.114000 # H LIG
474 129 6 0.130252 30.029541 37.644936 2.082000 # H LIG
475 129 6 0.130252 31.258310 36.725677 24.684998 # H LIG
476 129 6 0.130252 21.216311 36.632679 26.153997 # H LIG
477 129 6 0.130252 23.142309 35.416679 27.121998 # H LIG
478 129 6 0.130252 42.142464 0.948388 25.399998 # H LIG
479 129 6 0.130252 32.110462 1.034388 23.930998 # H LIG
480 129 6 0.130252 34.029694 2.260644 2.472000 # H LIG
481 129 6 0.130252 39.297462 9.386387 26.212997 # H LIG
482 129 6 0.130252 34.203693 0.745645 0.358000 # H LIG
483 129 6 0.130252 39.398460 7.111388 25.243998 # H LIG
484 129 6 0.130252 40.911694 0.046644 0.194000 # H LIG
485 129 6 0.130252 21.154541 36.674934 1.162000 # H LIG
486 129 6 0.130252 37.968693 7.721643 2.633000 # H LIG
487 129 7 1.286340 26.687309 33.662678 24.988998 # Ni LIG
488 129 7 1.286340 28.258541 34.527935 2.223000 # Ni LIG
489 129 7 1.286340 26.731310 35.455681 27.265999 # Ni LIG
490 129 7 1.286340 37.614693 2.231645 2.329000 # Ni LIG
491 129 7 1.286340 37.574463 4.019388 25.096998 # Ni LIG
492 129 7 1.286340 39.145691 3.168644 0.053000 # Ni LIG
493 129 3 0.449622 27.862541 31.580936 2.567000 # Cc LIG
494 129 2 -0.116375 24.341311 35.892677 23.961998 # Cb LIG
495 129 4 -0.185445 23.239540 36.608936 2.954000 # Cd LIG
496 129 2 -0.116375 22.107309 36.889679 24.198997 # Cb LIG
497 129 4 -0.185445 28.083542 29.157936 2.784000 # Cd LIG
498 129 4 -0.185445 28.150541 30.424934 3.332000 # Cd LIG
499 129 1 0.833564 25.444542 35.615936 2.531000 # Ca LIG
500 129 3 0.449622 29.471540 36.602936 0.289000 # Cc LIG
501 129 2 -0.116375 27.488541 31.380936 1.196000 # Cb LIG
502 129 4 -0.185445 27.417542 30.075935 0.678000 # Cd LIG
503 129 2 -0.116375 27.722542 28.945934 1.436000 # Cb LIG
504 129 4 -0.185445 9.671692 0.334644 0.502000 # Cd LIG
505 129 4 -0.185445 30.319542 37.443935 1.049001 # Cd LIG
506 129 1 0.833564 27.189541 32.481934 0.254000 # Ca LIG
507 129 3 0.449622 24.325310 35.462681 25.330997 # Cc LIG
508 129 2 -0.116375 29.840309 36.364677 26.239998 # Cb LIG
509 129 4 -0.185445 31.007309 36.954678 25.721998 # Cd LIG
510 129 2 -0.116375 10.049461 0.105388 26.477999 # Cb LIG
511 129 4 -0.185445 22.103310 36.455681 25.541998 # Cd LIG
512 129 4 -0.185445 23.170309 35.768681 26.089998 # Cd LIG
513 129 1 0.833564 29.038311 35.552681 25.297998 # Ca LIG
514 129 3 0.449622 35.215462 2.212388 24.753998 # Cc LIG
515 129 2 -0.116375 40.722694 1.320644 3.355000 # Cb LIG
516 129 4 -0.185445 41.890461 0.720388 24.362999 # Cd LIG
517 129 2 -0.116375 20.929541 37.572937 3.118000 # Cb LIG
518 129 4 -0.185445 32.996464 1.213388 24.542997 # Cd LIG
519 129 4 -0.185445 34.062462 1.902388 23.993998 # Cd LIG
520 129 1 0.833564 39.926464 2.130388 24.786999 # Ca LIG
521 129 3 0.449622 38.763462 6.107388 27.031998 # Cc LIG
522 129 2 -0.116375 35.232464 1.782388 26.122997 # Cb LIG
523 129 4 -0.185445 34.136463 1.069388 26.641998 # Cd LIG
524 129 2 -0.116375 33.000462 0.781388 25.886997 # Cb LIG
525 129 4 -0.185445 39.005463 8.529387 26.822998 # Cd LIG
526 129 4 -0.185445 39.073463 7.261387 26.273998 # Cd LIG
527 129 1 0.833564 36.338463 2.068388 27.063997 # Ca LIG
528 129 3 0.449622 40.357693 1.091644 1.986000 # Cc LIG