LAMMPS data file. CGCMM style. atom_style full generated by VMD/TopoTools v1.5 on Sun Jun 11 11:09:36 PDT 2017
 1569 atoms
 150 bonds
 0 angles
 0 dihedrals
 0 impropers
 11 atom types
 1 bond types
 0 angle types
 0 dihedral types
 0 improper types
 1.893790 45.771788  xlo xhi
 -2.148353 41.711648  ylo yhi
 -0.004506 27.667495  zlo zhi

# Pair Coeffs
#
# 1  Ca
# 2  Cb
# 3  Cc
# 4  Cd
# 5  Cg
# 6  H
# 7  Oa
# 8  Ob
# 9  Oc
# 10  Og
# 11  Zn

 Masses

 1 12.011000 # Ca
 2 12.011000 # Cb
 3 12.011000 # Cc
 4 12.011000 # Cd
 5 12.011000 # Cg
 6 1.008000 # H
 7 15.999000 # Oa
 8 15.999000 # Ob
 9 15.999000 # Oc
 10 15.999000 # Og
 11 65.379997 # Zn

 Atoms

1 1 10 -0.325600 19.200947 29.191446 18.922989 # Og 
2 1 5 0.651200 19.200947 29.191446 17.762989 # Cg 
3 1 10 -0.325600 19.200947 29.191446 16.602989 # Og 
4 2 10 -0.325600 19.201946 29.193445 24.457989 # Og 
5 2 5 0.651200 19.201946 29.193445 23.297989 # Cg 
6 2 10 -0.325600 19.201946 29.193445 22.137989 # Og 
7 3 10 -0.325600 19.198116 29.219545 2.320000 # Og 
8 3 5 0.651200 19.198116 29.219545 1.160000 # Cg 
9 3 10 -0.325600 19.198116 29.219545 0.000000 # Og 
10 4 10 -0.325600 19.199116 29.221544 7.854000 # Og 
11 4 5 0.651200 19.199116 29.221544 6.694000 # Cg 
12 4 10 -0.325600 19.199116 29.221544 5.534000 # Og 
13 5 10 -0.325600 19.200119 29.223545 13.389000 # Og 
14 5 5 0.651200 19.200119 29.223545 12.229000 # Cg 
15 5 10 -0.325600 19.200119 29.223545 11.069000 # Og 
16 6 10 -0.325600 13.716950 38.686447 18.922989 # Og 
17 6 5 0.651200 13.716950 38.686447 17.762989 # Cg 
18 6 10 -0.325600 13.716950 38.686447 16.602989 # Og 
19 7 10 -0.325600 13.717950 38.688446 24.457989 # Og 
20 7 5 0.651200 13.717950 38.688446 23.297989 # Cg 
21 7 10 -0.325600 13.717950 38.688446 22.137989 # Og 
22 8 10 -0.325600 13.714120 38.714546 2.320000 # Og 
23 8 5 0.651200 13.714120 38.714546 1.160000 # Cg 
24 8 10 -0.325600 13.714120 38.714546 0.000000 # Og 
25 9 10 -0.325600 13.715119 38.716545 7.854000 # Og 
26 9 5 0.651200 13.715119 38.716545 6.694000 # Cg 
27 9 10 -0.325600 13.715119 38.716545 5.534000 # Og 
28 10 10 -0.325600 13.716119 38.718544 13.389000 # Og 
29 10 5 0.651200 13.716119 38.718544 12.229000 # Cg 
30 10 10 -0.325600 13.716119 38.718544 11.069000 # Og 
31 11 10 -0.325600 30.169579 10.201402 18.922989 # Og 
32 11 5 0.651200 30.169579 10.201402 17.762989 # Cg 
33 11 10 -0.325600 30.169579 10.201402 16.602989 # Og 
34 12 10 -0.325600 30.170578 10.203402 24.457989 # Og 
35 12 5 0.651200 30.170578 10.203402 23.297989 # Cg 
36 12 10 -0.325600 30.170578 10.203402 22.137989 # Og 
37 13 10 -0.325600 30.166748 10.230500 2.320000 # Og 
38 13 5 0.651200 30.166748 10.230500 1.160000 # Cg 
39 13 10 -0.325600 30.166748 10.230500 0.000000 # Og 
40 14 10 -0.325600 30.167747 10.231501 7.854000 # Og 
41 14 5 0.651200 30.167747 10.231501 6.694000 # Cg 
42 14 10 -0.325600 30.167747 10.231501 5.534000 # Og 
43 15 10 -0.325600 30.168747 10.233500 13.389000 # Og 
44 15 5 0.651200 30.168747 10.233500 12.229000 # Cg 
45 15 10 -0.325600 30.168747 10.233500 11.069000 # Og 
46 16 10 -0.325600 24.685581 19.696402 18.922989 # Og 
47 16 5 0.651200 24.685581 19.696402 17.762989 # Cg 
48 16 10 -0.325600 24.685581 19.696402 16.602989 # Og 
49 17 10 -0.325600 24.686581 19.698402 24.457989 # Og 
50 17 5 0.651200 24.686581 19.698402 23.297989 # Cg 
51 17 10 -0.325600 24.686581 19.698402 22.137989 # Og 
52 18 10 -0.325600 24.682747 19.725500 2.320000 # Og 
53 18 5 0.651200 24.682747 19.725500 1.160000 # Cg 
54 18 10 -0.325600 24.682747 19.725500 0.000000 # Og 
55 19 10 -0.325600 24.682747 19.726501 7.854000 # Og 
56 19 5 0.651200 24.682747 19.726501 6.694000 # Cg 
57 19 10 -0.325600 24.682747 19.726501 5.534000 # Og 
58 20 10 -0.325600 24.683746 19.728500 13.389000 # Og 
59 20 5 0.651200 24.683746 19.728500 12.229000 # Cg 
60 20 10 -0.325600 24.683746 19.728500 11.069000 # Og 
61 21 10 -0.325600 30.170948 29.191446 18.922989 # Og 
62 21 5 0.651200 30.170948 29.191446 17.762989 # Cg 
63 21 10 -0.325600 30.170948 29.191446 16.602989 # Og 
64 22 10 -0.325600 30.171947 29.193445 24.457989 # Og 
65 22 5 0.651200 30.171947 29.193445 23.297989 # Cg 
66 22 10 -0.325600 30.171947 29.193445 22.137989 # Og 
67 23 10 -0.325600 30.167118 29.219545 2.320000 # Og 
68 23 5 0.651200 30.167118 29.219545 1.160000 # Cg 
69 23 10 -0.325600 30.167118 29.219545 0.000000 # Og 
70 24 10 -0.325600 30.168118 29.221544 7.854000 # Og 
71 24 5 0.651200 30.168118 29.221544 6.694000 # Cg 
72 24 10 -0.325600 30.168118 29.221544 5.534000 # Og 
73 25 10 -0.325600 30.169117 29.223545 13.389000 # Og 
74 25 5 0.651200 30.169117 29.223545 12.229000 # Cg 
75 25 10 -0.325600 30.169117 29.223545 11.069000 # Og 
76 26 10 -0.325600 24.685947 38.686447 18.922989 # Og 
77 26 5 0.651200 24.685947 38.686447 17.762989 # Cg 
78 26 10 -0.325600 24.685947 38.686447 16.602989 # Og 
79 27 10 -0.325600 24.686947 38.688446 24.457989 # Og 
80 27 5 0.651200 24.686947 38.688446 23.297989 # Cg 
81 27 10 -0.325600 24.686947 38.688446 22.137989 # Og 
82 28 10 -0.325600 24.683117 38.714546 2.320000 # Og 
83 28 5 0.651200 24.683117 38.714546 1.160000 # Cg 
84 28 10 -0.325600 24.683117 38.714546 0.000000 # Og 
85 29 10 -0.325600 24.684116 38.716545 7.854000 # Og 
86 29 5 0.651200 24.684116 38.716545 6.694000 # Cg 
87 29 10 -0.325600 24.684116 38.716545 5.534000 # Og 
88 30 10 -0.325600 24.685120 38.718544 13.389000 # Og 
89 30 5 0.651200 24.685120 38.718544 12.229000 # Cg 
90 30 10 -0.325600 24.685120 38.718544 11.069000 # Og 
91 31 10 -0.325600 41.138577 10.201402 18.922989 # Og 
92 31 5 0.651200 41.138577 10.201402 17.762989 # Cg 
93 31 10 -0.325600 41.138577 10.201402 16.602989 # Og 
94 32 10 -0.325600 41.139580 10.203402 24.457989 # Og 
95 32 5 0.651200 41.139580 10.203402 23.297989 # Cg 
96 32 10 -0.325600 41.139580 10.203402 22.137989 # Og 
97 33 10 -0.325600 41.135746 10.230500 2.320000 # Og 
98 33 5 0.651200 41.135746 10.230500 1.160000 # Cg 
99 33 10 -0.325600 41.135746 10.230500 0.000000 # Og 
100 34 10 -0.325600 41.136749 10.231501 7.854000 # Og 
101 34 5 0.651200 41.136749 10.231501 6.694000 # Cg 
102 34 10 -0.325600 41.136749 10.231501 5.534000 # Og 
103 35 10 -0.325600 41.137749 10.233500 13.389000 # Og 
104 35 5 0.651200 41.137749 10.233500 12.229000 # Cg 
105 35 10 -0.325600 41.137749 10.233500 11.069000 # Og 
106 36 10 -0.325600 35.654579 19.696402 18.922989 # Og 
107 36 5 0.651200 35.654579 19.696402 17.762989 # Cg 
108 36 10 -0.325600 35.654579 19.696402 16.602989 # Og 
109 37 10 -0.325600 35.655579 19.698402 24.457989 # Og 
110 37 5 0.651200 35.655579 19.698402 23.297989 # Cg 
111 37 10 -0.325600 35.655579 19.698402 22.137989 # Og 
112 38 10 -0.325600 35.651749 19.725500 2.320000 # Og 
113 38 5 0.651200 35.651749 19.725500 1.160000 # Cg 
114 38 10 -0.325600 35.651749 19.725500 0.000000 # Og 
115 39 10 -0.325600 35.652748 19.726501 7.854000 # Og 
116 39 5 0.651200 35.652748 19.726501 6.694000 # Cg 
117 39 10 -0.325600 35.652748 19.726501 5.534000 # Og 
118 40 10 -0.325600 35.653748 19.728500 13.389000 # Og 
119 40 5 0.651200 35.653748 19.728500 12.229000 # Cg 
120 40 10 -0.325600 35.653748 19.728500 11.069000 # Og 
121 41 10 -0.325600 41.139946 29.191446 18.922989 # Og 
122 41 5 0.651200 41.139946 29.191446 17.762989 # Cg 
123 41 10 -0.325600 41.139946 29.191446 16.602989 # Og 
124 42 10 -0.325600 41.140945 29.193445 24.457989 # Og 
125 42 5 0.651200 41.140945 29.193445 23.297989 # Cg 
126 42 10 -0.325600 41.140945 29.193445 22.137989 # Og 
127 43 10 -0.325600 41.137115 29.219545 2.320000 # Og 
128 43 5 0.651200 41.137115 29.219545 1.160000 # Cg 
129 43 10 -0.325600 41.137115 29.219545 0.000000 # Og 
130 44 10 -0.325600 41.138115 29.221544 7.854000 # Og 
131 44 5 0.651200 41.138115 29.221544 6.694000 # Cg 
132 44 10 -0.325600 41.138115 29.221544 5.534000 # Og 
133 45 10 -0.325600 41.139118 29.223545 13.389000 # Og 
134 45 5 0.651200 41.139118 29.223545 12.229000 # Cg 
135 45 10 -0.325600 41.139118 29.223545 11.069000 # Og 
136 46 10 -0.325600 35.655949 38.686447 18.922989 # Og 
137 46 5 0.651200 35.655949 38.686447 17.762989 # Cg 
138 46 10 -0.325600 35.655949 38.686447 16.602989 # Og 
139 47 10 -0.325600 35.656948 38.688446 24.457989 # Og 
140 47 5 0.651200 35.656948 38.688446 23.297989 # Cg 
141 47 10 -0.325600 35.656948 38.688446 22.137989 # Og 
142 48 10 -0.325600 35.653118 38.714546 2.320000 # Og 
143 48 5 0.651200 35.653118 38.714546 1.160000 # Cg 
144 48 10 -0.325600 35.653118 38.714546 0.000000 # Og 
145 49 10 -0.325600 35.654118 38.716545 7.854000 # Og 
146 49 5 0.651200 35.654118 38.716545 6.694000 # Cg 
147 49 10 -0.325600 35.654118 38.716545 5.534000 # Og 
148 50 10 -0.325600 35.655117 38.718544 13.389000 # Og 
149 50 5 0.651200 35.655117 38.718544 12.229000 # Cg 
150 50 10 -0.325600 35.655117 38.718544 11.069000 # Og 
151 51 10 -0.325600 8.230580 10.201402 18.922989 # Og 
152 51 5 0.651200 8.230580 10.201402 17.762989 # Cg 
153 51 10 -0.325600 8.230580 10.201402 16.602989 # Og 
154 52 10 -0.325600 8.231581 10.203402 24.457989 # Og 
155 52 5 0.651200 8.231581 10.203402 23.297989 # Cg 
156 52 10 -0.325600 8.231581 10.203402 22.137989 # Og 
157 53 10 -0.325600 8.227750 10.230500 2.320000 # Og 
158 53 5 0.651200 8.227750 10.230500 1.160000 # Cg 
159 53 10 -0.325600 8.227750 10.230500 0.000000 # Og 
160 54 10 -0.325600 8.228750 10.231501 7.854000 # Og 
161 54 5 0.651200 8.228750 10.231501 6.694000 # Cg 
162 54 10 -0.325600 8.228750 10.231501 5.534000 # Og 
163 55 10 -0.325600 8.229750 10.233500 13.389000 # Og 
164 55 5 0.651200 8.229750 10.233500 12.229000 # Cg 
165 55 10 -0.325600 8.229750 10.233500 11.069000 # Og 
166 56 10 -0.325600 46.624577 19.696402 18.922989 # Og 
167 56 5 0.651200 46.624577 19.696402 17.762989 # Cg 
168 56 10 -0.325600 46.624577 19.696402 16.602989 # Og 
169 57 10 -0.325600 46.625576 19.698402 24.457989 # Og 
170 57 5 0.651200 46.625576 19.698402 23.297989 # Cg 
171 57 10 -0.325600 46.625576 19.698402 22.137989 # Og 
172 58 10 -0.325600 46.621746 19.725500 2.320000 # Og 
173 58 5 0.651200 46.621746 19.725500 1.160000 # Cg 
174 58 10 -0.325600 46.621746 19.725500 0.000000 # Og 
175 59 10 -0.325600 46.621746 19.726501 7.854000 # Og 
176 59 5 0.651200 46.621746 19.726501 6.694000 # Cg 
177 59 10 -0.325600 46.621746 19.726501 5.534000 # Og 
178 60 10 -0.325600 46.622746 19.728500 13.389000 # Og 
179 60 5 0.651200 46.622746 19.728500 12.229000 # Cg 
180 60 10 -0.325600 46.622746 19.728500 11.069000 # Og 
181 61 10 -0.325600 8.231952 29.191446 18.922989 # Og 
182 61 5 0.651200 8.231952 29.191446 17.762989 # Cg 
183 61 10 -0.325600 8.231952 29.191446 16.602989 # Og 
184 62 10 -0.325600 8.232951 29.193445 24.457989 # Og 
185 62 5 0.651200 8.232951 29.193445 23.297989 # Cg 
186 62 10 -0.325600 8.232951 29.193445 22.137989 # Og 
187 63 10 -0.325600 8.228120 29.219545 2.320000 # Og 
188 63 5 0.651200 8.228120 29.219545 1.160000 # Cg 
189 63 10 -0.325600 8.228120 29.219545 0.000000 # Og 
190 64 10 -0.325600 8.229119 29.221544 7.854000 # Og 
191 64 5 0.651200 8.229119 29.221544 6.694000 # Cg 
192 64 10 -0.325600 8.229119 29.221544 5.534000 # Og 
193 65 10 -0.325600 8.230119 29.223545 13.389000 # Og 
194 65 5 0.651200 8.230119 29.223545 12.229000 # Cg 
195 65 10 -0.325600 8.230119 29.223545 11.069000 # Og 
196 66 10 -0.325600 46.624947 38.686447 18.922989 # Og 
197 66 5 0.651200 46.624947 38.686447 17.762989 # Cg 
198 66 10 -0.325600 46.624947 38.686447 16.602989 # Og 
199 67 10 -0.325600 46.625946 38.688446 24.457989 # Og 
200 67 5 0.651200 46.625946 38.688446 23.297989 # Cg 
201 67 10 -0.325600 46.625946 38.688446 22.137989 # Og 
202 68 10 -0.325600 46.622116 38.714546 2.320000 # Og 
203 68 5 0.651200 46.622116 38.714546 1.160000 # Cg 
204 68 10 -0.325600 46.622116 38.714546 0.000000 # Og 
205 69 10 -0.325600 46.623116 38.716545 7.854000 # Og 
206 69 5 0.651200 46.623116 38.716545 6.694000 # Cg 
207 69 10 -0.325600 46.623116 38.716545 5.534000 # Og 
208 70 10 -0.325600 46.624115 38.718544 13.389000 # Og 
209 70 5 0.651200 46.624115 38.718544 12.229000 # Cg 
210 70 10 -0.325600 46.624115 38.718544 11.069000 # Og 
211 71 10 -0.325600 19.199581 10.201402 18.922989 # Og 
212 71 5 0.651200 19.199581 10.201402 17.762989 # Cg 
213 71 10 -0.325600 19.199581 10.201402 16.602989 # Og 
214 72 10 -0.325600 19.200581 10.203402 24.457989 # Og 
215 72 5 0.651200 19.200581 10.203402 23.297989 # Cg 
216 72 10 -0.325600 19.200581 10.203402 22.137989 # Og 
217 73 10 -0.325600 19.196751 10.230500 2.320000 # Og 
218 73 5 0.651200 19.196751 10.230500 1.160000 # Cg 
219 73 10 -0.325600 19.196751 10.230500 0.000000 # Og 
220 74 10 -0.325600 19.197750 10.231501 7.854000 # Og 
221 74 5 0.651200 19.197750 10.231501 6.694000 # Cg 
222 74 10 -0.325600 19.197750 10.231501 5.534000 # Og 
223 75 10 -0.325600 19.198750 10.233500 13.389000 # Og 
224 75 5 0.651200 19.198750 10.233500 12.229000 # Cg 
225 75 10 -0.325600 19.198750 10.233500 11.069000 # Og 
226 76 6 0.135033 23.448046 37.187798 22.706993 # H LIG
227 76 6 0.135033 28.604046 30.801798 18.227993 # H LIG
228 76 6 0.135033 28.573046 28.516796 24.187994 # H LIG
229 76 6 0.135033 27.350044 30.148796 20.394993 # H LIG
230 76 6 0.135033 10.320678 0.993752 21.862993 # H LIG
231 76 6 0.135033 30.278046 37.855797 22.827993 # H LIG
232 76 6 0.135033 31.503044 37.031796 18.095993 # H LIG
233 76 6 0.135033 21.384045 36.868797 19.553993 # H LIG
234 76 6 0.135033 23.348045 35.716797 20.517994 # H LIG
235 76 6 0.135033 42.463676 0.894752 18.798992 # H LIG
236 76 6 0.135033 32.356674 1.053751 17.341993 # H LIG
237 76 6 0.135033 34.319675 2.201752 23.292994 # H LIG
238 76 6 0.135033 39.607674 9.415751 19.656994 # H LIG
239 76 6 0.135033 34.423676 0.733752 21.105993 # H LIG
240 76 6 0.135033 39.634674 7.140751 18.688993 # H LIG
241 76 6 0.135033 41.242676 0.068752 20.984993 # H LIG
242 76 6 0.135033 21.285046 36.923798 21.950993 # H LIG
243 76 6 0.135033 38.287674 7.780753 23.415993 # H LIG
244 76 11 0.918944 26.900045 33.849796 18.427994 # Zn LIG
245 76 11 0.918944 28.516045 34.811798 23.038994 # Zn LIG
246 76 11 0.918944 26.871044 35.727798 20.734993 # Zn LIG
247 76 11 0.918944 37.841675 2.202752 23.075993 # Zn LIG
248 76 11 0.918944 37.867676 4.088752 18.466993 # Zn LIG
249 76 11 0.918944 39.484676 3.123752 20.770992 # Zn LIG
250 76 3 0.616091 28.017044 31.777798 23.325993 # Cc LIG
251 76 2 -0.169815 24.508045 36.195797 17.344994 # Cb LIG
252 76 4 -0.190923 23.390045 36.861797 23.745995 # Cd LIG
253 76 2 -0.169815 22.251045 37.131798 17.586994 # Cb LIG
254 76 4 -0.190923 28.298046 29.365797 23.557993 # Cd LIG
255 76 4 -0.190923 28.324045 30.639797 24.102993 # Cd LIG
256 76 1 1.051130 25.629045 35.936798 23.325993 # Ca LIG
257 76 3 0.616091 29.743046 36.819798 21.020992 # Cc LIG
258 76 2 -0.169815 27.674046 31.565798 21.954994 # Cb LIG
259 76 4 -0.190923 27.647045 30.259796 21.438993 # Cd LIG
260 76 2 -0.169815 27.964046 29.140797 22.205994 # Cb LIG
261 76 4 -0.190923 9.735677 0.312752 21.241993 # Cd LIG
262 76 4 -0.190923 30.563046 37.675797 21.788994 # Cd LIG
263 76 1 1.051130 27.344046 32.663795 21.015993 # Ca LIG
264 76 3 0.616091 24.514046 35.779797 18.712994 # Cc LIG
265 76 2 -0.169815 30.105045 36.617798 19.652992 # Cb LIG
266 76 4 -0.190923 31.251045 37.245796 19.134995 # Cd LIG
267 76 2 -0.169815 10.110677 0.114751 19.895992 # Cb LIG
268 76 4 -0.190923 22.267046 36.706799 18.932993 # Cd LIG
269 76 4 -0.190923 23.362045 36.054798 19.479994 # Cd LIG
270 76 1 1.051130 29.320045 35.781796 18.713993 # Ca LIG
271 76 3 0.616091 35.486675 2.148752 18.178993 # Cc LIG
272 76 2 -0.169815 41.071674 1.308751 24.158993 # Cb LIG
273 76 4 -0.190923 42.211674 0.682752 17.759995 # Cd LIG
274 76 2 -0.169815 21.076046 37.804798 23.917994 # Cb LIG
275 76 4 -0.190923 33.240677 1.216751 17.961994 # Cd LIG
276 76 4 -0.190923 34.333675 1.870752 17.412994 # Cd LIG
277 76 1 1.051130 40.288677 2.155752 18.177994 # Ca LIG
278 76 3 0.616091 38.993675 6.155752 20.489994 # Cc LIG
279 76 2 -0.169815 35.481674 1.734752 19.546993 # Cb LIG
280 76 4 -0.190923 34.363674 1.059752 20.065994 # Cd LIG
281 76 2 -0.169815 33.226677 0.792752 19.307993 # Cb LIG
282 76 4 -0.190923 39.305676 8.567751 20.274994 # Cd LIG
283 76 4 -0.190923 39.330677 7.294753 19.725994 # Cd LIG
284 76 1 1.051130 36.600677 1.992751 20.483994 # Ca LIG
285 76 3 0.616091 40.710674 1.108752 22.790993 # Cc LIG
286 76 2 -0.169815 38.634674 6.366752 21.857994 # Cb LIG
287 76 4 -0.190923 38.602676 7.671751 22.376993 # Cd LIG
288 76 2 -0.169815 38.937675 8.791752 21.618994 # Cb LIG
289 76 4 -0.190923 20.702045 37.607796 22.571993 # Cd LIG
290 76 4 -0.190923 41.526676 0.248752 22.022993 # Cd LIG
291 76 1 1.051130 38.302677 5.266752 22.794994 # Ca LIG
292 76 9 -0.683695 39.631676 1.669752 22.198994 # Oc LIG
293 76 7 -0.688200 38.422676 4.052752 22.380993 # Oa LIG
294 76 8 -0.706966 40.708675 2.336751 19.371994 # Ob LIG
295 76 9 -0.683695 39.053677 4.941752 19.896994 # Oc LIG
296 76 7 -0.688200 37.592674 2.703752 20.072994 # Oa LIG
297 76 8 -0.706966 37.935677 5.538752 23.987993 # Ob LIG
298 76 9 -0.683695 36.509674 2.805752 17.587994 # Oc LIG
299 76 7 -0.688200 39.177677 2.662752 17.765993 # Oa LIG
300 76 8 -0.706966 36.548676 1.535752 21.676994 # Ob LIG
301 76 9 -0.683695 25.540045 35.125797 19.304993 # Oc LIG
302 76 7 -0.688200 28.207047 35.279797 19.124992 # Oa LIG
303 76 8 -0.706966 25.574045 36.390797 22.131992 # Ob LIG
304 76 9 -0.683695 28.081045 32.994797 23.913994 # Oc LIG
305 76 7 -0.688200 26.626045 35.231796 23.737993 # Oa LIG
306 76 8 -0.706966 26.981045 32.390797 19.821993 # Ob LIG
307 76 9 -0.683695 28.661045 36.264797 21.611994 # Oc LIG
308 76 7 -0.688200 27.457047 33.878796 21.429993 # Oa LIG
309 76 8 -0.706966 29.741045 35.599796 17.520992 # Ob LIG
310 76 6 0.135033 23.444422 37.214989 1.953002 # H LIG
311 76 6 0.135033 28.605253 30.803890 25.145990 # H LIG
312 76 6 0.135033 28.569424 28.543987 3.434002 # H LIG
313 76 6 0.135033 27.351254 30.150890 27.312990 # H LIG
314 76 6 0.135033 10.317055 1.020943 1.109001 # H LIG
315 76 6 0.135033 30.274422 37.882988 2.074002 # H LIG
316 76 6 0.135033 31.504253 37.033890 25.013990 # H LIG
317 76 6 0.135033 21.385254 36.870888 26.471991 # H LIG
318 76 6 0.135033 23.349253 35.718891 27.435991 # H LIG
319 76 6 0.135033 42.464882 0.896844 25.716991 # H LIG
320 76 6 0.135033 32.357883 1.055844 24.259991 # H LIG
321 76 6 0.135033 34.316051 2.228943 2.539002 # H LIG
322 76 6 0.135033 39.608883 9.417843 26.574991 # H LIG
323 76 6 0.135033 34.420052 0.760942 0.352002 # H LIG
324 76 6 0.135033 39.635883 7.142844 25.606991 # H LIG
325 76 6 0.135033 41.239052 0.095942 0.231002 # H LIG
326 76 6 0.135033 21.281422 36.950989 1.197002 # H LIG
327 76 6 0.135033 38.284054 7.807943 2.662001 # H LIG
328 76 11 0.918944 26.901253 33.851891 25.345991 # Zn LIG
329 76 11 0.918944 28.512423 34.838989 2.285002 # Zn LIG
330 76 11 0.918944 26.872253 35.729889 27.652990 # Zn LIG
331 76 11 0.918944 37.838051 2.229942 2.322002 # Zn LIG
332 76 11 0.918944 37.868885 4.090845 25.384991 # Zn LIG
333 76 11 0.918944 39.481052 3.150943 0.017002 # Zn LIG
334 76 3 0.616091 28.013422 31.804989 2.572002 # Cc LIG
335 76 2 -0.169815 24.509253 36.197887 24.262991 # Cb LIG
336 76 4 -0.190923 23.386423 36.888988 2.992002 # Cd LIG
337 76 2 -0.169815 22.252253 37.133888 24.504992 # Cb LIG
338 76 4 -0.190923 28.294422 29.392988 2.804002 # Cd LIG
339 76 4 -0.190923 28.320423 30.666988 3.349002 # Cd LIG
340 76 1 1.051130 25.625423 35.963989 2.572002 # Ca LIG
341 76 3 0.616091 29.739422 36.846989 0.267002 # Cc LIG
342 76 2 -0.169815 27.670422 31.592987 1.201001 # Cb LIG
343 76 4 -0.190923 27.643421 30.286987 0.685002 # Cd LIG
344 76 2 -0.169815 27.960423 29.167988 1.452001 # Cb LIG
345 76 4 -0.190923 9.732055 0.339943 0.488002 # Cd LIG
346 76 4 -0.190923 30.559422 37.702988 1.035002 # Cd LIG
347 76 1 1.051130 27.340424 32.690987 0.262002 # Ca LIG
348 76 3 0.616091 24.515253 35.781891 25.630991 # Cc LIG
349 76 2 -0.169815 30.106253 36.619888 26.570992 # Cb LIG
350 76 4 -0.190923 31.252253 37.247890 26.052992 # Cd LIG
351 76 2 -0.169815 10.111885 0.116844 26.813992 # Cb LIG
352 76 4 -0.190923 22.268253 36.708889 25.850990 # Cd LIG
353 76 4 -0.190923 23.363253 36.056889 26.397991 # Cd LIG
354 76 1 1.051130 29.321253 35.783890 25.631990 # Ca LIG
355 76 3 0.616091 35.487885 2.150844 25.096991 # Cc LIG
356 76 2 -0.169815 41.068054 1.335942 3.405001 # Cb LIG
357 76 4 -0.190923 42.212883 0.684844 24.677990 # Cd LIG
358 76 2 -0.169815 21.072422 37.831985 3.164002 # Cb LIG
359 76 4 -0.190923 33.241882 1.218844 24.879992 # Cd LIG
360 76 4 -0.190923 34.334885 1.872844 24.330992 # Cd LIG
361 76 1 1.051130 40.289883 2.157844 25.095991 # Ca LIG
362 76 3 0.616091 38.994884 6.157844 27.407991 # Cc LIG
363 76 2 -0.169815 35.482883 1.736844 26.464991 # Cb LIG
364 76 4 -0.190923 34.364883 1.061844 26.983992 # Cd LIG
365 76 2 -0.169815 33.227882 0.794844 26.225990 # Cb LIG
366 76 4 -0.190923 39.306885 8.569843 27.192991 # Cd LIG
367 76 4 -0.190923 39.331882 7.296845 26.643991 # Cd LIG
368 76 1 1.051130 36.601883 1.994844 27.401991 # Ca LIG
369 76 3 0.616091 40.707054 1.135942 2.037001 # Cc LIG
370 76 2 -0.169815 38.631054 6.393943 1.104002 # Cb LIG
371 76 4 -0.190923 38.599052 7.698942 1.623001 # Cd LIG
372 76 2 -0.169815 38.934052 8.818943 0.865001 # Cb LIG
373 76 4 -0.190923 20.698421 37.634987 1.818002 # Cd LIG
374 76 4 -0.190923 41.523052 0.275943 1.269002 # Cd LIG
375 76 1 1.051130 38.299053 5.293942 2.041002 # Ca LIG
376 76 9 -0.683695 39.628052 1.696942 1.445001 # Oc LIG
377 76 7 -0.688200 38.419052 4.079943 1.627002 # Oa LIG
378 76 8 -0.706966 40.709885 2.338844 26.289991 # Ob LIG
379 76 9 -0.683695 39.054882 4.943844 26.814991 # Oc LIG
380 76 7 -0.688200 37.593884 2.705844 26.990992 # Oa LIG
381 76 8 -0.706966 37.932053 5.565943 3.234001 # Ob LIG
382 76 9 -0.683695 36.510883 2.807845 24.505991 # Oc LIG
383 76 7 -0.688200 39.178883 2.664844 24.683990 # Oa LIG
384 76 8 -0.706966 36.545052 1.562943 0.923002 # Ob LIG
385 76 9 -0.683695 25.541254 35.127892 26.222992 # Oc LIG
386 76 7 -0.688200 28.208254 35.281891 26.042992 # Oa LIG
387 76 8 -0.706966 25.570423 36.417988 1.378001 # Ob LIG
388 76 9 -0.683695 28.077423 33.021988 3.160002 # Oc LIG
389 76 7 -0.688200 26.622421 35.258987 2.984001 # Oa LIG
390 76 8 -0.706966 26.982254 32.392891 26.739990 # Ob LIG
391 76 9 -0.683695 28.657421 36.291988 0.858001 # Oc LIG
392 76 7 -0.688200 27.453423 33.905987 0.676002 # Oa LIG
393 76 8 -0.706966 29.742252 35.601891 24.438992 # Ob LIG
394 76 6 0.135033 23.445629 37.217079 8.870998 # H LIG
395 76 6 0.135033 28.601631 30.831081 4.391998 # H LIG
396 76 6 0.135033 28.570631 28.546082 10.351998 # H LIG
397 76 6 0.135033 27.347630 30.178080 6.558998 # H LIG
398 76 6 0.135033 10.318262 1.023035 8.026999 # H LIG
399 76 6 0.135033 30.275631 37.885078 8.991999 # H LIG
400 76 6 0.135033 31.500629 37.061081 4.259998 # H LIG
401 76 6 0.135033 21.381630 36.898079 5.717999 # H LIG
402 76 6 0.135033 23.345631 35.746078 6.681998 # H LIG
403 76 6 0.135033 42.461262 0.924035 4.962998 # H LIG
404 76 6 0.135033 32.354259 1.083035 3.505998 # H LIG
405 76 6 0.135033 34.317261 2.231035 9.456999 # H LIG
406 76 6 0.135033 39.605259 9.445034 5.820998 # H LIG
407 76 6 0.135033 34.421261 0.763035 7.269999 # H LIG
408 76 6 0.135033 39.632259 7.170034 4.852999 # H LIG
409 76 6 0.135033 41.240261 0.098035 7.148998 # H LIG
410 76 6 0.135033 21.282631 36.953079 8.114999 # H LIG
411 76 6 0.135033 38.285259 7.810036 9.579998 # H LIG
412 76 11 0.918944 26.897631 33.879082 4.591999 # Zn LIG
413 76 11 0.918944 28.513630 34.841080 9.202998 # Zn LIG
414 76 11 0.918944 26.868629 35.757080 6.898998 # Zn LIG
415 76 11 0.918944 37.839260 2.232035 9.239999 # Zn LIG
416 76 11 0.918944 37.865261 4.118035 4.630999 # Zn LIG
417 76 11 0.918944 39.482262 3.153035 6.934999 # Zn LIG
418 76 3 0.616091 28.014629 31.807079 9.489999 # Cc LIG
419 76 2 -0.169815 24.505630 36.225079 3.508998 # Cb LIG
420 76 4 -0.190923 23.387630 36.891079 9.909999 # Cd LIG
421 76 2 -0.169815 22.248631 37.161079 3.750998 # Cb LIG
422 76 4 -0.190923 28.295630 29.395081 9.721998 # Cd LIG
423 76 4 -0.190923 28.321630 30.669081 10.266998 # Cd LIG
424 76 1 1.051130 25.626631 35.966080 9.489999 # Ca LIG
425 76 3 0.616091 29.740631 36.849079 7.184999 # Cc LIG
426 76 2 -0.169815 27.671631 31.595081 8.118999 # Cb LIG
427 76 4 -0.190923 27.644630 30.289080 7.602999 # Cd LIG
428 76 2 -0.169815 27.961630 29.170080 8.369998 # Cb LIG
429 76 4 -0.190923 9.733263 0.342035 7.405998 # Cd LIG
430 76 4 -0.190923 30.560631 37.705078 7.952998 # Cd LIG
431 76 1 1.051130 27.341631 32.693081 7.179998 # Ca LIG
432 76 3 0.616091 24.511631 35.809082 4.876998 # Cc LIG
433 76 2 -0.169815 30.102631 36.647079 5.816998 # Cb LIG
434 76 4 -0.190923 31.248631 37.275078 5.298998 # Cd LIG
435 76 2 -0.169815 10.108263 0.144034 6.059999 # Cb LIG
436 76 4 -0.190923 22.264629 36.736080 5.096998 # Cd LIG
437 76 4 -0.190923 23.359631 36.084080 5.643998 # Cd LIG
438 76 1 1.051130 29.317631 35.811081 4.877998 # Ca LIG
439 76 3 0.616091 35.484261 2.178035 4.342999 # Cc LIG
440 76 2 -0.169815 41.069260 1.338035 10.322998 # Cb LIG
441 76 4 -0.190923 42.209259 0.712035 3.923998 # Cd LIG
442 76 2 -0.169815 21.073631 37.834080 10.081999 # Cb LIG
443 76 4 -0.190923 33.238258 1.246035 4.125998 # Cd LIG
444 76 4 -0.190923 34.331261 1.900035 3.576998 # Cd LIG
445 76 1 1.051130 40.286263 2.185035 4.341999 # Ca LIG
446 76 3 0.616091 38.991261 6.185035 6.653998 # Cc LIG
447 76 2 -0.169815 35.479259 1.764035 5.710999 # Cb LIG
448 76 4 -0.190923 34.361259 1.089035 6.229999 # Cd LIG
449 76 2 -0.169815 33.224258 0.822035 5.471998 # Cb LIG
450 76 4 -0.190923 39.303261 8.597034 6.438998 # Cd LIG
451 76 4 -0.190923 39.328262 7.324036 5.889998 # Cd LIG
452 76 1 1.051130 36.598259 2.022035 6.647998 # Ca LIG
453 76 3 0.616091 40.708260 1.138035 8.954998 # Cc LIG
454 76 2 -0.169815 38.632259 6.396035 8.021998 # Cb LIG
455 76 4 -0.190923 38.600262 7.701035 8.540998 # Cd LIG
456 76 2 -0.169815 38.935261 8.821035 7.782998 # Cb LIG
457 76 4 -0.190923 20.699631 37.637081 8.735998 # Cd LIG
458 76 4 -0.190923 41.524261 0.278035 8.186998 # Cd LIG
459 76 1 1.051130 38.300262 5.296035 8.958999 # Ca LIG
460 76 9 -0.683695 39.629261 1.699035 8.362998 # Oc LIG
461 76 7 -0.688200 38.420261 4.082035 8.544998 # Oa LIG
462 76 8 -0.706966 40.706261 2.366035 5.535998 # Ob LIG
463 76 9 -0.683695 39.051262 4.971035 6.060998 # Oc LIG
464 76 7 -0.688200 37.590260 2.733035 6.236999 # Oa LIG
465 76 8 -0.706966 37.933262 5.568035 10.151999 # Ob LIG
466 76 9 -0.683695 36.507259 2.835035 3.751998 # Oc LIG
467 76 7 -0.688200 39.175262 2.692035 3.929998 # Oa LIG
468 76 8 -0.706966 36.546261 1.565035 7.840999 # Ob LIG
469 76 9 -0.683695 25.537630 35.155079 5.468998 # Oc LIG
470 76 7 -0.688200 28.204630 35.309082 5.288999 # Oa LIG
471 76 8 -0.706966 25.571630 36.420082 8.295999 # Ob LIG
472 76 9 -0.683695 28.078630 33.024078 10.077998 # Oc LIG
473 76 7 -0.688200 26.623631 35.261082 9.901999 # Oa LIG
474 76 8 -0.706966 26.978630 32.420082 5.985998 # Ob LIG
475 76 9 -0.683695 28.658630 36.294079 7.775998 # Oc LIG
476 76 7 -0.688200 27.454630 33.908081 7.593999 # Oa LIG
477 76 8 -0.706966 29.738630 35.629082 3.684999 # Ob LIG
478 76 6 0.135033 23.446838 37.219173 15.788996 # H LIG
479 76 6 0.135033 28.602839 30.833172 11.309996 # H LIG
480 76 6 0.135033 28.571838 28.548172 17.269997 # H LIG
481 76 6 0.135033 27.348837 30.180172 13.476995 # H LIG
482 76 6 0.135033 10.319469 1.025127 14.944996 # H LIG
483 76 6 0.135033 30.276838 37.887173 15.909996 # H LIG
484 76 6 0.135033 31.501837 37.063171 11.177996 # H LIG
485 76 6 0.135033 21.382837 36.900173 12.635996 # H LIG
486 76 6 0.135033 23.346838 35.748173 13.599997 # H LIG
487 76 6 0.135033 42.462467 0.926127 11.880996 # H LIG
488 76 6 0.135033 32.355469 1.085127 10.423996 # H LIG
489 76 6 0.135033 34.318466 2.233128 16.374996 # H LIG
490 76 6 0.135033 39.606468 9.447126 12.738997 # H LIG
491 76 6 0.135033 34.422470 0.765127 14.187996 # H LIG
492 76 6 0.135033 39.633469 7.172127 11.770996 # H LIG
493 76 6 0.135033 41.241467 0.100127 14.066996 # H LIG
494 76 6 0.135033 21.283838 36.955173 15.032996 # H LIG
495 76 6 0.135033 38.286469 7.812128 16.497995 # H LIG
496 76 11 0.918944 26.898838 33.881172 11.509996 # Zn LIG
497 76 11 0.918944 28.514837 34.843174 16.120996 # Zn LIG
498 76 11 0.918944 26.869837 35.759171 13.816996 # Zn LIG
499 76 11 0.918944 37.840469 2.234127 16.157997 # Zn LIG
500 76 11 0.918944 37.866467 4.120128 11.548996 # Zn LIG
501 76 11 0.918944 39.483467 3.155128 13.852996 # Zn LIG
502 76 3 0.616091 28.015837 31.809174 16.407997 # Cc LIG
503 76 2 -0.169815 24.506838 36.227173 10.426996 # Cb LIG
504 76 4 -0.190923 23.388838 36.893173 16.827995 # Cd LIG
505 76 2 -0.169815 22.249838 37.163174 10.668996 # Cb LIG
506 76 4 -0.190923 28.296837 29.397173 16.639996 # Cd LIG
507 76 4 -0.190923 28.322838 30.671173 17.184996 # Cd LIG
508 76 1 1.051130 25.627838 35.968174 16.407997 # Ca LIG
509 76 3 0.616091 29.741838 36.851173 14.102996 # Cc LIG
510 76 2 -0.169815 27.672838 31.597172 15.036996 # Cb LIG
511 76 4 -0.190923 27.645838 30.291172 14.520996 # Cd LIG
512 76 2 -0.169815 27.962837 29.172173 15.287996 # Cb LIG
513 76 4 -0.190923 9.734470 0.344128 14.323996 # Cd LIG
514 76 4 -0.190923 30.561838 37.707172 14.870996 # Cd LIG
515 76 1 1.051130 27.342838 32.695171 14.097996 # Ca LIG
516 76 3 0.616091 24.512838 35.811172 11.794996 # Cc LIG
517 76 2 -0.169815 30.103838 36.649174 12.734996 # Cb LIG
518 76 4 -0.190923 31.249838 37.277172 12.216996 # Cd LIG
519 76 2 -0.169815 10.109470 0.146127 12.977996 # Cb LIG
520 76 4 -0.190923 22.265839 36.738174 12.014996 # Cd LIG
521 76 4 -0.190923 23.360838 36.086174 12.561996 # Cd LIG
522 76 1 1.051130 29.318838 35.813171 11.795996 # Ca LIG
523 76 3 0.616091 35.485466 2.180127 11.260996 # Cc LIG
524 76 2 -0.169815 41.070469 1.340127 17.240995 # Cb LIG
525 76 4 -0.190923 42.210468 0.714128 10.841996 # Cd LIG
526 76 2 -0.169815 21.074837 37.836174 16.999996 # Cb LIG
527 76 4 -0.190923 33.239468 1.248127 11.043996 # Cd LIG
528 76 4 -0.190923 34.332466 1.902127 10.494996 # Cd LIG